version 2
run Exponencial-0-20110407-08:56:43-10604
attr configname Exponencial
attr datetime 20110407-08:56:43
attr experiment Exponencial
attr inifile C:/omnetpp-4.1-src-windows/omnetpp-4.1/samples/Tirt/omnetpp.ini
attr iterationvars ""
attr iterationvars2 $repetition=0
attr measurement ""
attr network Network2
attr processid 10604
attr repetition 0
attr replication #0
attr resultdir results
attr runnumber 0
attr seedset 0

vector 0  Network2.receiver  arrivals  ETV
attr interpolationmode  none
vector 1  Network2.receiver  sizes  ETV
0	2	0	0
0	4	33	33
0	6	66	33
0	8	101	35
0	10	138	37
0	12	171	33
0	14	208	37
0	16	241	33
0	18	278	37
0	20	310	32
0	22	343	33
0	24	377	34
0	26	408	31
0	28	440	32
0	30	471	31
0	32	509	38
0	34	539	30
0	36	582	43
0	38	613	31
0	40	644	31
0	42	676	32
0	44	712	36
0	46	748	36
0	48	781	33
0	50	813	32
0	52	846	33
0	54	877	31
0	56	917	40
0	58	954	37
0	60	984	30
0	62	1015	31
0	64	1045	30
0	66	1079	34
0	68	1109	30
0	70	1140	31
0	72	1177	37
0	74	1219	42
0	76	1255	36
0	78	1285	30
0	80	1323	38
0	82	1361	38
0	84	1406	45
0	86	1438	32
0	88	1474	36
0	90	1510	36
0	92	1542	32
0	94	1574	32
0	96	1610	36
0	98	1644	34
0	100	1674	30
0	102	1709	35
0	104	1743	34
0	106	1776	33
0	108	1806	30
0	110	1839	33
0	112	1880	41
0	114	1915	35
0	116	1947	32
0	118	1977	30
0	120	2009	32
0	122	2041	32
0	124	2072	31
0	126	2102	30
0	128	2137	35
0	130	2172	35
0	132	2204	32
0	134	2234	30
0	136	2267	33
0	138	2297	30
0	140	2327	30
0	142	2358	31
0	144	2391	33
0	146	2421	30
0	148	2454	33
0	150	2485	31
0	152	2518	33
0	154	2549	31
0	156	2590	41
0	158	2629	39
0	160	2663	34
0	162	2695	32
0	164	2726	31
0	166	2759	33
0	168	2791	32
0	170	2830	39
0	172	2864	34
0	174	2894	30
0	176	2924	30
0	178	2968	44
0	180	3002	34
0	182	3036	34
0	184	3070	34
0	186	3100	30
0	188	3130	30
0	190	3161	31
0	192	3191	30
0	194	3226	35
0	196	3257	31
0	198	3290	33
0	200	3321	31
0	202	3352	31
0	204	3385	33
0	206	3415	30
0	208	3447	32
0	210	3481	34
0	212	3528	47
0	214	3570	42
0	216	3600	30
0	218	3634	34
0	220	3664	30
0	222	3698	34
0	224	3728	30
0	226	3779	51
0	228	3813	34
0	230	3846	33
0	232	3877	31
0	234	3909	32
0	236	3941	32
0	238	3973	32
0	240	4004	31
0	242	4037	33
0	244	4067	30
0	246	4098	31
0	248	4128	30
0	250	4162	34
0	252	4196	34
0	254	4227	31
0	256	4257	30
0	258	4293	36
0	260	4323	30
0	262	4364	41
0	264	4395	31
0	266	4429	34
0	268	4465	36
0	270	4495	30
0	272	4525	30
0	274	4558	33
0	276	4595	37
0	278	4629	34
0	280	4659	30
0	282	4703	44
0	284	4747	44
0	286	4785	38
0	288	4817	32
0	290	4849	32
0	292	4894	45
0	294	4924	30
0	296	4957	33
0	298	4989	32
0	300	5024	35
1	2	0	500
1	4	33	500
1	6	66	500
1	8	101	500
1	10	138	500
1	12	171	500
1	14	208	500
1	16	241	500
1	18	278	500
1	20	310	500
1	22	343	500
1	24	377	500
1	26	408	500
1	28	440	500
1	30	471	500
1	32	509	500
1	34	539	500
1	36	582	500
1	38	613	500
1	40	644	500
1	42	676	500
1	44	712	500
1	46	748	500
1	48	781	500
1	50	813	500
1	52	846	500
1	54	877	500
1	56	917	500
1	58	954	500
1	60	984	500
1	62	1015	500
1	64	1045	500
1	66	1079	500
1	68	1109	500
1	70	1140	500
1	72	1177	500
1	74	1219	500
1	76	1255	500
1	78	1285	500
1	80	1323	500
1	82	1361	500
1	84	1406	500
1	86	1438	500
1	88	1474	500
1	90	1510	500
1	92	1542	500
1	94	1574	500
1	96	1610	500
1	98	1644	500
1	100	1674	500
1	102	1709	500
1	104	1743	500
1	106	1776	500
1	108	1806	500
1	110	1839	500
1	112	1880	500
1	114	1915	500
1	116	1947	500
1	118	1977	500
1	120	2009	500
1	122	2041	500
1	124	2072	500
1	126	2102	500
1	128	2137	500
1	130	2172	500
1	132	2204	500
1	134	2234	500
1	136	2267	500
1	138	2297	500
1	140	2327	500
1	142	2358	500
1	144	2391	500
1	146	2421	500
1	148	2454	500
1	150	2485	500
1	152	2518	500
1	154	2549	500
1	156	2590	500
1	158	2629	500
1	160	2663	500
1	162	2695	500
1	164	2726	500
1	166	2759	500
1	168	2791	500
1	170	2830	500
1	172	2864	500
1	174	2894	500
1	176	2924	500
1	178	2968	500
1	180	3002	500
1	182	3036	500
1	184	3070	500
1	186	3100	500
1	188	3130	500
1	190	3161	500
1	192	3191	500
1	194	3226	500
1	196	3257	500
1	198	3290	500
1	200	3321	500
1	202	3352	500
1	204	3385	500
1	206	3415	500
1	208	3447	500
1	210	3481	500
1	212	3528	500
1	214	3570	500
1	216	3600	500
1	218	3634	500
1	220	3664	500
1	222	3698	500
1	224	3728	500
1	226	3779	500
1	228	3813	500
1	230	3846	500
1	232	3877	500
1	234	3909	500
1	236	3941	500
1	238	3973	500
1	240	4004	500
1	242	4037	500
1	244	4067	500
1	246	4098	500
1	248	4128	500
1	250	4162	500
1	252	4196	500
1	254	4227	500
1	256	4257	500
1	258	4293	500
1	260	4323	500
1	262	4364	500
1	264	4395	500
1	266	4429	500
1	268	4465	500
1	270	4495	500
1	272	4525	500
1	274	4558	500
1	276	4595	500
1	278	4629	500
1	280	4659	500
1	282	4703	500
1	284	4747	500
1	286	4785	500
1	288	4817	500
1	290	4849	500
1	292	4894	500
1	294	4924	500
1	296	4957	500
1	298	4989	500
1	300	5024	500
