version 2
run Exponencial-0-20110504-22:35:06-4496
attr configname Exponencial
attr datetime 20110504-22:35:06
attr experiment Exponencial
attr inifile omnetpp.ini
attr iterationvars ""
attr iterationvars2 $repetition=0
attr measurement ""
attr network Network2
attr processid 4496
attr repetition 0
attr replication #0
attr resultdir results
attr runnumber 0
attr seedset 0

vector 0  Network2.receiver1  arrivals  ETV
attr interpolationmode  none
vector 1  Network2.receiver1  sizes  ETV
vector 2  Network2.receiver2  arrivals  ETV
attr interpolationmode  none
vector 3  Network2.receiver2  sizes  ETV
0	3	0	0
0	12	111	111
0	15	144	33
0	18	175	31
0	21	206	31
0	24	236	30
0	27	267	31
0	30	299	32
0	33	335	36
0	36	367	32
0	39	398	31
0	42	435	37
0	45	465	30
0	51	532	67
0	66	715	183
0	72	779	64
0	78	852	73
0	81	884	32
0	93	1008	124
0	96	1038	30
0	99	1069	31
0	102	1100	31
0	105	1134	34
0	108	1165	31
0	114	1234	69
0	120	1312	78
0	132	1434	122
0	135	1464	30
0	138	1498	34
0	141	1540	42
0	144	1574	34
0	147	1604	30
0	150	1637	33
0	153	1669	32
0	156	1700	31
0	159	1730	30
0	165	1794	64
0	171	1855	61
0	186	2028	173
0	192	2106	78
0	201	2218	112
0	204	2249	31
0	225	2497	248
0	231	2567	70
0	234	2598	31
0	243	2697	99
0	246	2728	31
0	249	2758	30
0	252	2791	33
0	255	2821	30
0	258	2852	31
0	270	2979	127
0	273	3012	33
0	279	3085	73
0	288	3194	109
0	291	3230	36
0	294	3262	32
0	297	3293	31
0	300	3324	31
0	303	3367	43
0	306	3400	33
0	309	3432	32
0	315	3508	76
0	318	3540	32
0	321	3573	33
0	324	3605	32
0	327	3640	35
0	330	3671	31
0	333	3704	33
0	336	3736	32
0	339	3766	30
0	342	3799	33
0	345	3832	33
0	348	3866	34
0	351	3900	34
0	360	4002	102
0	363	4048	46
0	366	4079	31
0	372	4143	64
0	375	4174	31
0	378	4206	32
0	381	4236	30
0	387	4296	60
0	393	4370	74
0	399	4434	64
0	402	4464	30
0	405	4498	34
0	408	4530	32
0	414	4604	74
0	417	4641	37
0	420	4672	31
0	426	4739	67
0	429	4769	30
0	432	4799	30
0	438	4860	61
0	444	4934	74
0	453	5035	101
0	456	5065	30
0	459	5099	34
0	462	5148	49
0	465	5179	31
0	477	5326	147
0	483	5386	60
0	486	5427	41
0	492	5503	76
0	495	5534	31
0	498	5564	30
0	504	5627	63
0	510	5691	64
0	513	5721	30
0	516	5756	35
0	522	5822	66
0	528	5903	81
0	531	5933	30
0	537	5998	65
0	540	6028	30
0	546	6102	74
0	549	6136	34
0	555	6197	61
0	558	6229	32
0	561	6259	30
0	564	6301	42
0	567	6335	34
0	573	6411	76
0	576	6442	31
0	579	6484	42
0	588	6580	96
0	591	6615	35
0	594	6647	32
0	597	6678	31
0	600	6714	36
0	603	6749	35
0	606	6780	31
0	615	6876	96
0	618	6913	37
0	624	6973	60
0	627	7003	30
0	633	7079	76
0	636	7109	30
0	639	7139	30
0	651	7266	127
0	654	7296	30
0	657	7329	33
0	660	7359	30
0	663	7396	37
0	669	7476	80
0	672	7506	30
0	681	7621	115
0	693	7767	146
0	696	7808	41
0	702	7878	70
0	705	7909	31
0	708	7946	37
0	711	7979	33
0	717	8046	67
0	723	8128	82
0	726	8163	35
0	729	8193	30
0	735	8256	63
0	741	8319	63
0	747	8381	62
0	750	8426	45
0	753	8458	32
0	759	8522	64
0	762	8558	36
0	765	8590	32
0	768	8621	31
0	777	8722	101
0	786	8817	95
0	795	8911	94
0	798	8942	31
0	801	8974	32
0	807	9044	70
0	813	9110	66
0	822	9206	96
0	828	9272	66
0	831	9303	31
0	840	9394	91
0	849	9500	106
0	852	9530	30
0	855	9560	30
0	858	9598	38
0	867	9690	92
0	873	9756	66
0	882	9868	112
0	885	9902	34
0	888	9934	32
0	891	9964	30
0	900	10055	91
0	903	10085	30
0	906	10115	30
0	909	10145	30
0	915	10208	63
0	921	10274	66
0	924	10312	38
0	927	10342	30
0	939	10469	127
0	945	10534	65
0	948	10565	31
0	951	10597	32
0	954	10639	42
0	957	10671	32
0	969	10825	154
0	972	10855	30
0	987	11037	182
0	990	11068	31
0	993	11099	31
0	996	11132	33
0	1002	11202	70
0	1011	11299	97
0	1017	11362	63
0	1020	11393	31
0	1029	11486	93
0	1032	11520	34
0	1035	11551	31
0	1038	11581	30
0	1041	11612	31
0	1050	11707	95
0	1053	11751	44
0	1056	11799	48
0	1062	11867	68
0	1068	11930	63
0	1071	11961	31
0	1074	11997	36
0	1077	12028	31
0	1080	12059	31
0	1083	12093	34
0	1086	12130	37
0	1089	12162	32
0	1092	12194	32
0	1098	12262	68
0	1104	12336	74
0	1107	12371	35
0	1110	12403	32
0	1116	12475	72
0	1125	12571	96
0	1134	12693	122
0	1137	12727	34
0	1143	12792	65
0	1146	12830	38
0	1152	12892	62
0	1158	12957	65
0	1164	13025	68
0	1170	13094	69
0	1182	13232	138
0	1188	13305	73
0	1194	13382	77
0	1197	13432	50
0	1200	13464	32
0	1203	13497	33
0	1209	13563	66
0	1212	13597	34
0	1215	13628	31
0	1218	13658	30
0	1221	13697	39
0	1224	13740	43
0	1227	13773	33
0	1230	13803	30
0	1248	14016	213
0	1251	14054	38
0	1254	14088	34
0	1257	14119	31
0	1266	14213	94
0	1269	14256	43
0	1272	14286	30
0	1278	14356	70
0	1287	14458	102
0	1290	14489	31
0	1293	14522	33
0	1296	14563	41
0	1302	14635	72
0	1305	14669	34
0	1308	14707	38
0	1314	14771	64
0	1317	14801	30
0	1320	14835	34
0	1332	14960	125
0	1335	14990	30
0	1338	15022	32
0	1344	15092	70
0	1350	15156	64
0	1353	15187	31
0	1359	15263	76
0	1362	15300	37
0	1365	15339	39
0	1377	15471	132
0	1383	15549	78
0	1386	15580	31
0	1389	15616	36
0	1395	15685	69
0	1398	15718	33
0	1404	15787	69
0	1407	15819	32
0	1413	15884	65
0	1425	16012	128
0	1428	16042	30
0	1431	16072	30
0	1434	16102	30
0	1440	16164	62
0	1443	16197	33
0	1452	16306	109
0	1455	16336	30
0	1458	16370	34
0	1461	16403	33
0	1464	16434	31
0	1470	16497	63
0	1473	16529	32
0	1476	16559	30
0	1479	16591	32
0	1488	16687	96
0	1491	16717	30
0	1494	16749	32
0	1500	16823	74
0	1503	16854	31
0	1506	16884	30
0	1509	16917	33
0	1515	16980	63
0	1518	17012	32
0	1524	17075	63
0	1527	17107	32
0	1533	17171	64
0	1536	17205	34
0	1542	17273	68
0	1545	17319	46
0	1554	17423	104
0	1557	17456	33
0	1560	17498	42
0	1563	17529	31
0	1566	17559	30
0	1569	17594	35
0	1578	17689	95
0	1584	17751	62
0	1590	17823	72
0	1596	17894	71
0	1599	17940	46
0	1602	17972	32
0	1608	18038	66
0	1611	18068	30
0	1614	18107	39
0	1617	18137	30
0	1620	18167	30
0	1623	18200	33
0	1632	18307	107
0	1635	18346	39
0	1638	18377	31
0	1641	18409	32
0	1650	18516	107
0	1653	18546	30
0	1659	18610	64
0	1662	18642	32
0	1668	18707	65
0	1671	18742	35
0	1674	18776	34
0	1692	18974	198
0	1695	19004	30
0	1698	19036	32
0	1704	19099	63
0	1707	19129	30
0	1710	19164	35
0	1716	19227	63
0	1722	19303	76
0	1725	19333	30
0	1728	19371	38
0	1734	19434	63
0	1740	19502	68
0	1743	19551	49
0	1746	19582	31
0	1749	19614	32
0	1752	19651	37
0	1755	19682	31
0	1764	19773	91
0	1767	19803	30
0	1773	19866	63
0	1779	19935	69
0	1785	20012	77
0	1788	20043	31
0	1791	20077	34
0	1800	20173	96
0	1803	20213	40
0	1809	20282	69
0	1812	20316	34
0	1827	20483	167
0	1830	20514	31
0	1833	20546	32
0	1839	20611	65
0	1842	20643	32
0	1845	20675	32
0	1854	20780	105
0	1857	20813	33
0	1860	20843	30
0	1875	21013	170
0	1878	21045	32
0	1881	21083	38
0	1884	21114	31
0	1890	21175	61
0	1893	21209	34
0	1896	21240	31
0	1899	21271	31
0	1911	21410	139
0	1914	21445	35
0	1923	21547	102
0	1926	21579	32
0	1929	21615	36
0	1932	21652	37
0	1935	21682	30
0	1938	21714	32
0	1950	21848	134
0	1956	21908	60
0	1962	21972	64
0	1965	22005	33
0	1968	22035	30
0	1974	22110	75
0	1977	22144	34
0	1980	22175	31
0	1986	22235	60
0	1989	22275	40
0	1992	22309	34
0	1998	22376	67
0	2004	22441	65
0	2013	22539	98
0	2016	22573	34
0	2019	22605	32
0	2025	22666	61
0	2028	22696	30
0	2034	22759	63
0	2037	22794	35
0	2049	22920	126
0	2052	22957	37
0	2058	23023	66
0	2061	23057	34
0	2064	23094	37
0	2067	23124	30
0	2070	23163	39
0	2073	23193	30
0	2076	23228	35
0	2079	23258	30
0	2082	23290	32
0	2088	23360	70
0	2097	23465	105
0	2106	23560	95
0	2115	23672	112
0	2121	23736	64
0	2130	23841	105
0	2139	23946	105
0	2142	23980	34
0	2145	24010	30
0	2148	24042	32
0	2151	24075	33
0	2157	24144	69
0	2178	24372	228
0	2181	24403	31
0	2196	24583	180
0	2202	24650	67
0	2214	24793	143
0	2217	24825	32
0	2223	24887	62
0	2226	24917	30
0	2235	25024	107
0	2244	25124	100
0	2247	25154	30
0	2253	25222	68
0	2256	25262	40
0	2259	25292	30
0	2262	25323	31
0	2265	25353	30
0	2271	25422	69
0	2274	25467	45
0	2277	25497	30
0	2280	25532	35
0	2283	25563	31
0	2289	25629	66
0	2292	25670	41
0	2295	25702	32
0	2298	25734	32
0	2301	25764	30
0	2304	25797	33
0	2307	25832	35
0	2313	25898	66
0	2319	25958	60
0	2325	26021	63
0	2331	26097	76
0	2334	26128	31
0	2340	26194	66
0	2343	26225	31
0	2346	26256	31
0	2352	26336	80
0	2358	26399	63
0	2364	26466	67
0	2370	26531	65
0	2382	26671	140
0	2388	26740	69
0	2400	26871	131
0	2406	26934	63
0	2409	26965	31
0	2412	26997	32
0	2418	27066	69
0	2427	27173	107
0	2430	27237	64
0	2433	27269	32
0	2436	27299	30
0	2442	27363	64
0	2454	27500	137
0	2457	27532	32
0	2460	27570	38
0	2463	27607	37
0	2472	27702	95
0	2475	27733	31
0	2478	27764	31
0	2481	27796	32
0	2490	27887	91
0	2493	27918	31
0	2496	27951	33
0	2499	27982	31
0	2502	28022	40
0	2505	28055	33
0	2511	28118	63
0	2514	28148	30
0	2520	28212	64
0	2523	28250	38
0	2526	28286	36
0	2529	28316	30
0	2532	28350	34
0	2535	28380	30
0	2538	28434	54
0	2547	28533	99
0	2553	28605	72
0	2556	28636	31
0	2559	28666	30
0	2562	28706	40
0	2571	28809	103
0	2574	28839	30
0	2583	28934	95
0	2586	28969	35
0	2592	29040	71
0	2595	29078	38
0	2607	29204	126
0	2610	29234	30
0	2613	29266	32
0	2619	29337	71
0	2622	29369	32
0	2637	29528	159
0	2640	29559	31
0	2652	29684	125
0	2655	29714	30
0	2661	29776	62
0	2664	29815	39
0	2667	29845	30
0	2670	29875	30
0	2676	29935	60
0	2682	30004	69
0	2685	30039	35
0	2688	30072	33
0	2691	30104	32
0	2694	30135	31
0	2700	30210	75
0	2703	30244	34
0	2706	30275	31
0	2709	30305	30
0	2712	30341	36
0	2715	30379	38
0	2718	30414	35
0	2721	30448	34
0	2724	30481	33
0	2727	30514	33
0	2730	30545	31
0	2733	30575	30
0	2739	30648	73
0	2748	30762	114
0	2751	30794	32
0	2763	30917	123
0	2766	30948	31
0	2769	30980	32
0	2772	31010	30
0	2775	31049	39
0	2781	31122	73
0	2784	31165	43
0	2796	31329	164
0	2799	31360	31
0	2805	31426	66
0	2808	31460	34
0	2814	31528	68
0	2823	31623	95
0	2826	31655	32
0	2835	31750	95
0	2838	31780	30
0	2841	31812	32
0	2844	31843	31
0	2847	31875	32
0	2850	31906	31
0	2853	31940	34
0	2856	31971	31
0	2859	32002	31
0	2862	32038	36
0	2865	32080	42
0	2868	32127	47
0	2871	32165	38
0	2874	32195	30
0	2880	32266	71
0	2892	32399	133
0	2895	32435	36
0	2898	32475	40
0	2901	32508	33
0	2904	32554	46
0	2907	32588	34
0	2910	32619	31
0	2913	32652	33
0	2916	32682	30
0	2922	32757	75
0	2925	32791	34
0	2928	32823	32
0	2931	32853	30
0	2934	32884	31
0	2937	32918	34
0	2943	32990	72
0	2949	33065	75
0	2952	33096	31
0	2955	33126	30
0	2961	33193	67
0	2964	33224	31
0	2973	33328	104
0	2976	33361	33
0	2979	33392	31
0	2991	33527	135
0	2994	33563	36
0	2997	33593	30
0	3003	33658	65
0	3012	33776	118
0	3015	33822	46
0	3033	34030	208
0	3042	34129	99
0	3051	34223	94
0	3054	34253	30
0	3060	34316	63
0	3063	34359	43
0	3069	34425	66
0	3075	34488	63
0	3078	34532	44
0	3081	34563	31
0	3084	34599	36
0	3096	34744	145
0	3099	34780	36
0	3102	34819	39
0	3105	34853	34
0	3108	34884	31
0	3111	34919	35
0	3114	34951	32
0	3120	35033	82
0	3123	35071	38
0	3126	35105	34
0	3129	35137	32
0	3132	35167	30
0	3135	35202	35
0	3141	35263	61
0	3144	35294	31
0	3147	35327	33
0	3153	35389	62
0	3156	35420	31
0	3162	35480	60
0	3168	35541	61
0	3171	35572	31
0	3174	35603	31
0	3177	35644	41
0	3180	35681	37
0	3183	35719	38
0	3189	35795	76
0	3204	35970	175
0	3210	36046	76
0	3213	36079	33
0	3216	36109	30
0	3222	36176	67
0	3225	36210	34
0	3237	36342	132
0	3243	36427	85
0	3249	36488	61
0	3252	36519	31
0	3255	36549	30
0	3258	36581	32
0	3261	36615	34
0	3264	36646	31
0	3270	36709	63
0	3279	36807	98
0	3282	36840	33
0	3285	36871	31
0	3294	36967	96
0	3300	37031	64
0	3303	37065	34
0	3306	37095	30
0	3309	37131	36
0	3315	37199	68
0	3318	37230	31
0	3321	37263	33
0	3324	37293	30
0	3330	37359	66
0	3333	37393	34
0	3336	37427	34
0	3342	37493	66
0	3345	37528	35
0	3348	37563	35
0	3351	37599	36
0	3357	37666	67
0	3363	37734	68
0	3369	37807	73
0	3372	37847	40
0	3375	37879	32
0	3378	37910	31
0	3384	37974	64
0	3393	38076	102
0	3396	38109	33
0	3402	38174	65
0	3405	38205	31
0	3408	38235	30
0	3411	38268	33
0	3414	38299	31
0	3417	38338	39
0	3423	38407	69
0	3426	38438	31
0	3429	38468	30
0	3438	38565	97
0	3441	38595	30
0	3447	38659	64
0	3450	38689	30
0	3453	38721	32
0	3477	39005	284
0	3480	39042	37
0	3489	39136	94
0	3495	39207	71
0	3504	39306	99
0	3507	39347	41
0	3513	39411	64
0	3519	39481	70
0	3522	39512	31
0	3525	39544	32
0	3528	39574	30
0	3534	39640	66
0	3537	39671	31
0	3546	39774	103
0	3552	39843	69
0	3555	39881	38
0	3558	39913	32
0	3561	39943	30
0	3564	39975	32
0	3567	40008	33
0	3570	40049	41
0	3573	40080	31
0	3576	40126	46
0	3582	40194	68
0	3585	40230	36
0	3591	40308	78
0	3594	40338	30
0	3597	40372	34
0	3603	40442	70
0	3606	40474	32
0	3609	40506	32
0	3615	40570	64
0	3618	40607	37
0	3624	40669	62
0	3627	40704	35
0	3630	40736	32
0	3636	40812	76
0	3639	40843	31
0	3645	40917	74
0	3654	41018	101
0	3660	41092	74
0	3663	41122	30
0	3666	41156	34
0	3669	41187	31
0	3672	41217	30
0	3675	41249	32
0	3687	41395	146
0	3690	41428	33
0	3693	41458	30
0	3696	41488	30
0	3699	41520	32
0	3708	41619	99
0	3711	41651	32
0	3714	41682	31
0	3717	41727	45
0	3720	41762	35
0	3723	41792	30
0	3729	41862	70
0	3732	41901	39
0	3741	41996	95
0	3744	42028	32
0	3747	42074	46
0	3750	42108	34
0	3753	42144	36
0	3756	42180	36
0	3762	42251	71
0	3765	42283	32
0	3768	42317	34
0	3771	42347	30
0	3777	42409	62
0	3780	42440	31
0	3783	42477	37
0	3786	42513	36
0	3789	42568	55
0	3792	42605	37
0	3798	42672	67
0	3801	42717	45
0	3804	42757	40
0	3807	42799	42
0	3810	42833	34
0	3813	42867	34
0	3816	42897	30
0	3819	42929	32
0	3822	42960	31
0	3828	43022	62
0	3834	43086	64
0	3837	43117	31
0	3843	43177	60
0	3846	43208	31
0	3852	43275	67
0	3858	43337	62
0	3864	43401	64
0	3867	43434	33
0	3870	43465	31
0	3876	43530	65
0	3879	43566	36
0	3882	43597	31
0	3885	43630	33
0	3891	43696	66
0	3897	43765	69
0	3900	43797	32
0	3906	43869	72
0	3909	43917	48
0	3912	43950	33
0	3915	43983	33
0	3918	44013	30
0	3921	44048	35
0	3927	44118	70
0	3930	44148	30
0	3933	44180	32
0	3939	44251	71
0	3942	44281	30
0	3945	44311	30
0	3948	44341	30
0	3951	44371	30
0	3954	44402	31
0	3960	44466	64
0	3975	44639	173
0	3978	44677	38
0	3999	44904	227
0	4002	44936	32
0	4008	44998	62
0	4011	45041	43
0	4017	45107	66
0	4020	45138	31
0	4032	45264	126
0	4035	45305	41
0	4038	45336	31
0	4050	45473	137
0	4056	45545	72
0	4059	45577	32
0	4062	45609	32
0	4068	45673	64
0	4071	45715	42
0	4074	45746	31
0	4077	45782	36
0	4080	45814	32
0	4086	45880	66
0	4089	45912	32
0	4092	45942	30
0	4095	45972	30
0	4098	46003	31
0	4101	46034	31
0	4104	46064	30
0	4107	46100	36
0	4110	46132	32
0	4116	46208	76
0	4122	46268	60
0	4125	46302	34
0	4134	46397	95
0	4140	46460	63
0	4143	46493	33
0	4146	46528	35
0	4152	46589	61
0	4155	46620	31
0	4158	46651	31
0	4164	46723	72
0	4167	46755	32
0	4170	46785	30
0	4173	46817	32
0	4179	46886	69
0	4182	46916	30
0	4185	46952	36
0	4191	47028	76
0	4200	47124	96
0	4206	47184	60
0	4209	47216	32
0	4212	47246	30
0	4215	47277	31
0	4218	47309	32
0	4221	47340	31
0	4227	47402	62
0	4230	47438	36
0	4233	47474	36
0	4236	47518	44
0	4242	47583	65
0	4248	47649	66
0	4260	47774	125
0	4263	47812	38
0	4269	47884	72
0	4272	47920	36
0	4275	47951	31
0	4278	47982	31
0	4281	48015	33
0	4284	48049	34
0	4287	48081	32
0	4290	48114	33
0	4293	48147	33
0	4305	48271	124
0	4308	48301	30
0	4311	48338	37
0	4314	48372	34
0	4317	48417	45
0	4320	48463	46
0	4323	48497	34
0	4326	48528	31
0	4329	48558	30
0	4338	48664	106
0	4341	48701	37
0	4344	48739	38
0	4347	48771	32
0	4350	48814	43
0	4356	48882	68
0	4362	48954	72
0	4365	48987	33
0	4371	49050	63
0	4374	49081	31
0	4377	49113	32
0	4380	49146	33
0	4383	49176	30
0	4398	49374	198
0	4404	49439	65
0	4407	49469	30
0	4413	49533	64
0	4419	49593	60
0	4434	49759	166
0	4437	49796	37
0	4440	49828	32
0	4443	49859	31
0	4446	49897	38
0	4449	49937	40
0	4452	49969	32
0	4458	50030	61
0	4461	50060	30
0	4464	50094	34
0	4467	50138	44
0	4476	50229	91
0	4482	50294	65
0	4485	50324	30
0	4488	50362	38
0	4494	50425	63
0	4497	50465	40
0	4500	50495	30
0	4503	50527	32
0	4509	50587	60
0	4512	50626	39
0	4515	50656	30
0	4518	50688	32
0	4524	50749	61
0	4530	50823	74
0	4533	50855	32
0	4545	50987	132
0	4551	51049	62
0	4554	51089	40
0	4557	51126	37
0	4560	51162	36
0	4566	51234	72
0	4569	51275	41
0	4575	51342	67
0	4584	51443	101
0	4587	51476	33
0	4590	51518	42
0	4593	51552	34
0	4596	51582	30
0	4602	51650	68
0	4605	51686	36
0	4611	51751	65
0	4614	51788	37
0	4617	51819	31
0	4620	51849	30
0	4623	51883	34
0	4626	51923	40
0	4635	52030	107
0	4638	52061	31
0	4641	52097	36
0	4644	52132	35
0	4647	52163	31
0	4653	52226	63
0	4656	52259	33
0	4659	52289	30
0	4662	52319	30
0	4665	52359	40
0	4671	52422	63
0	4674	52459	37
0	4677	52493	34
0	4680	52527	34
0	4686	52592	65
0	4692	52654	62
0	4695	52685	31
0	4698	52718	33
0	4704	52791	73
0	4707	52824	33
0	4713	52896	72
0	4722	52986	90
0	4725	53019	33
0	4728	53060	41
0	4731	53100	40
0	4734	53132	32
0	4737	53165	33
0	4740	53195	30
0	4743	53233	38
0	4752	53356	123
0	4755	53389	33
0	4761	53457	68
0	4764	53488	31
0	4770	53555	67
0	4782	53698	143
0	4788	53759	61
0	4791	53789	30
0	4797	53864	75
0	4809	53995	131
0	4812	54030	35
0	4824	54156	126
0	4827	54195	39
0	4833	54263	68
0	4836	54300	37
0	4839	54330	30
0	4842	54372	42
0	4845	54402	30
0	4851	54465	63
0	4860	54566	101
1	3	0	500
1	12	111	500
1	15	144	500
1	18	175	500
1	21	206	500
1	24	236	500
1	27	267	500
1	30	299	500
1	33	335	500
1	36	367	500
1	39	398	500
1	42	435	500
1	45	465	500
1	51	532	500
1	66	715	500
1	72	779	500
1	78	852	500
1	81	884	500
1	93	1008	500
1	96	1038	500
1	99	1069	500
1	102	1100	500
1	105	1134	500
1	108	1165	500
1	114	1234	500
1	120	1312	500
1	132	1434	500
1	135	1464	500
1	138	1498	500
1	141	1540	500
1	144	1574	500
1	147	1604	500
1	150	1637	500
1	153	1669	500
1	156	1700	500
1	159	1730	500
1	165	1794	500
1	171	1855	500
1	186	2028	500
1	192	2106	500
1	201	2218	500
1	204	2249	500
1	225	2497	500
1	231	2567	500
1	234	2598	500
1	243	2697	500
1	246	2728	500
1	249	2758	500
1	252	2791	500
1	255	2821	500
1	258	2852	500
1	270	2979	500
1	273	3012	500
1	279	3085	500
1	288	3194	500
1	291	3230	500
1	294	3262	500
1	297	3293	500
1	300	3324	500
1	303	3367	500
1	306	3400	500
1	309	3432	500
1	315	3508	500
1	318	3540	500
1	321	3573	500
1	324	3605	500
1	327	3640	500
1	330	3671	500
1	333	3704	500
1	336	3736	500
1	339	3766	500
1	342	3799	500
1	345	3832	500
1	348	3866	500
1	351	3900	500
1	360	4002	500
1	363	4048	500
1	366	4079	500
1	372	4143	500
1	375	4174	500
1	378	4206	500
1	381	4236	500
1	387	4296	500
1	393	4370	500
1	399	4434	500
1	402	4464	500
1	405	4498	500
1	408	4530	500
1	414	4604	500
1	417	4641	500
1	420	4672	500
1	426	4739	500
1	429	4769	500
1	432	4799	500
1	438	4860	500
1	444	4934	500
1	453	5035	500
1	456	5065	500
1	459	5099	500
1	462	5148	500
1	465	5179	500
1	477	5326	500
1	483	5386	500
1	486	5427	500
1	492	5503	500
1	495	5534	500
1	498	5564	500
1	504	5627	500
1	510	5691	500
1	513	5721	500
1	516	5756	500
1	522	5822	500
1	528	5903	500
1	531	5933	500
1	537	5998	500
1	540	6028	500
1	546	6102	500
1	549	6136	500
1	555	6197	500
1	558	6229	500
1	561	6259	500
1	564	6301	500
1	567	6335	500
1	573	6411	500
1	576	6442	500
1	579	6484	500
1	588	6580	500
1	591	6615	500
1	594	6647	500
1	597	6678	500
1	600	6714	500
1	603	6749	500
1	606	6780	500
1	615	6876	500
1	618	6913	500
1	624	6973	500
1	627	7003	500
1	633	7079	500
1	636	7109	500
1	639	7139	500
1	651	7266	500
1	654	7296	500
1	657	7329	500
1	660	7359	500
1	663	7396	500
1	669	7476	500
1	672	7506	500
1	681	7621	500
1	693	7767	500
1	696	7808	500
1	702	7878	500
1	705	7909	500
1	708	7946	500
1	711	7979	500
1	717	8046	500
1	723	8128	500
1	726	8163	500
1	729	8193	500
1	735	8256	500
1	741	8319	500
1	747	8381	500
1	750	8426	500
1	753	8458	500
1	759	8522	500
1	762	8558	500
1	765	8590	500
1	768	8621	500
1	777	8722	500
1	786	8817	500
1	795	8911	500
1	798	8942	500
1	801	8974	500
1	807	9044	500
1	813	9110	500
1	822	9206	500
1	828	9272	500
1	831	9303	500
1	840	9394	500
1	849	9500	500
1	852	9530	500
1	855	9560	500
1	858	9598	500
1	867	9690	500
1	873	9756	500
1	882	9868	500
1	885	9902	500
1	888	9934	500
1	891	9964	500
1	900	10055	500
1	903	10085	500
1	906	10115	500
1	909	10145	500
1	915	10208	500
1	921	10274	500
1	924	10312	500
1	927	10342	500
1	939	10469	500
1	945	10534	500
1	948	10565	500
1	951	10597	500
1	954	10639	500
1	957	10671	500
1	969	10825	500
1	972	10855	500
1	987	11037	500
1	990	11068	500
1	993	11099	500
1	996	11132	500
1	1002	11202	500
1	1011	11299	500
1	1017	11362	500
1	1020	11393	500
1	1029	11486	500
1	1032	11520	500
1	1035	11551	500
1	1038	11581	500
1	1041	11612	500
1	1050	11707	500
1	1053	11751	500
1	1056	11799	500
1	1062	11867	500
1	1068	11930	500
1	1071	11961	500
1	1074	11997	500
1	1077	12028	500
1	1080	12059	500
1	1083	12093	500
1	1086	12130	500
1	1089	12162	500
1	1092	12194	500
1	1098	12262	500
1	1104	12336	500
1	1107	12371	500
1	1110	12403	500
1	1116	12475	500
1	1125	12571	500
1	1134	12693	500
1	1137	12727	500
1	1143	12792	500
1	1146	12830	500
1	1152	12892	500
1	1158	12957	500
1	1164	13025	500
1	1170	13094	500
1	1182	13232	500
1	1188	13305	500
1	1194	13382	500
1	1197	13432	500
1	1200	13464	500
1	1203	13497	500
1	1209	13563	500
1	1212	13597	500
1	1215	13628	500
1	1218	13658	500
1	1221	13697	500
1	1224	13740	500
1	1227	13773	500
1	1230	13803	500
1	1248	14016	500
1	1251	14054	500
1	1254	14088	500
1	1257	14119	500
1	1266	14213	500
1	1269	14256	500
1	1272	14286	500
1	1278	14356	500
1	1287	14458	500
1	1290	14489	500
1	1293	14522	500
1	1296	14563	500
1	1302	14635	500
1	1305	14669	500
1	1308	14707	500
1	1314	14771	500
1	1317	14801	500
1	1320	14835	500
1	1332	14960	500
1	1335	14990	500
1	1338	15022	500
1	1344	15092	500
1	1350	15156	500
1	1353	15187	500
1	1359	15263	500
1	1362	15300	500
1	1365	15339	500
1	1377	15471	500
1	1383	15549	500
1	1386	15580	500
1	1389	15616	500
1	1395	15685	500
1	1398	15718	500
1	1404	15787	500
1	1407	15819	500
1	1413	15884	500
1	1425	16012	500
1	1428	16042	500
1	1431	16072	500
1	1434	16102	500
1	1440	16164	500
1	1443	16197	500
1	1452	16306	500
1	1455	16336	500
1	1458	16370	500
1	1461	16403	500
1	1464	16434	500
1	1470	16497	500
1	1473	16529	500
1	1476	16559	500
1	1479	16591	500
1	1488	16687	500
1	1491	16717	500
1	1494	16749	500
1	1500	16823	500
1	1503	16854	500
1	1506	16884	500
1	1509	16917	500
1	1515	16980	500
1	1518	17012	500
1	1524	17075	500
1	1527	17107	500
1	1533	17171	500
1	1536	17205	500
1	1542	17273	500
1	1545	17319	500
1	1554	17423	500
1	1557	17456	500
1	1560	17498	500
1	1563	17529	500
1	1566	17559	500
1	1569	17594	500
1	1578	17689	500
1	1584	17751	500
1	1590	17823	500
1	1596	17894	500
1	1599	17940	500
1	1602	17972	500
1	1608	18038	500
1	1611	18068	500
1	1614	18107	500
1	1617	18137	500
1	1620	18167	500
1	1623	18200	500
1	1632	18307	500
1	1635	18346	500
1	1638	18377	500
1	1641	18409	500
1	1650	18516	500
1	1653	18546	500
1	1659	18610	500
1	1662	18642	500
1	1668	18707	500
1	1671	18742	500
1	1674	18776	500
1	1692	18974	500
1	1695	19004	500
1	1698	19036	500
1	1704	19099	500
1	1707	19129	500
1	1710	19164	500
1	1716	19227	500
1	1722	19303	500
1	1725	19333	500
1	1728	19371	500
1	1734	19434	500
1	1740	19502	500
1	1743	19551	500
1	1746	19582	500
1	1749	19614	500
1	1752	19651	500
1	1755	19682	500
1	1764	19773	500
1	1767	19803	500
1	1773	19866	500
1	1779	19935	500
1	1785	20012	500
1	1788	20043	500
1	1791	20077	500
1	1800	20173	500
1	1803	20213	500
1	1809	20282	500
1	1812	20316	500
1	1827	20483	500
1	1830	20514	500
1	1833	20546	500
1	1839	20611	500
1	1842	20643	500
1	1845	20675	500
1	1854	20780	500
1	1857	20813	500
1	1860	20843	500
1	1875	21013	500
1	1878	21045	500
1	1881	21083	500
1	1884	21114	500
1	1890	21175	500
1	1893	21209	500
1	1896	21240	500
1	1899	21271	500
1	1911	21410	500
1	1914	21445	500
1	1923	21547	500
1	1926	21579	500
1	1929	21615	500
1	1932	21652	500
1	1935	21682	500
1	1938	21714	500
1	1950	21848	500
1	1956	21908	500
1	1962	21972	500
1	1965	22005	500
1	1968	22035	500
1	1974	22110	500
1	1977	22144	500
1	1980	22175	500
1	1986	22235	500
1	1989	22275	500
1	1992	22309	500
1	1998	22376	500
1	2004	22441	500
1	2013	22539	500
1	2016	22573	500
1	2019	22605	500
1	2025	22666	500
1	2028	22696	500
1	2034	22759	500
1	2037	22794	500
1	2049	22920	500
1	2052	22957	500
1	2058	23023	500
1	2061	23057	500
1	2064	23094	500
1	2067	23124	500
1	2070	23163	500
1	2073	23193	500
1	2076	23228	500
1	2079	23258	500
1	2082	23290	500
1	2088	23360	500
1	2097	23465	500
1	2106	23560	500
1	2115	23672	500
1	2121	23736	500
1	2130	23841	500
1	2139	23946	500
1	2142	23980	500
1	2145	24010	500
1	2148	24042	500
1	2151	24075	500
1	2157	24144	500
1	2178	24372	500
1	2181	24403	500
1	2196	24583	500
1	2202	24650	500
1	2214	24793	500
1	2217	24825	500
1	2223	24887	500
1	2226	24917	500
1	2235	25024	500
1	2244	25124	500
1	2247	25154	500
1	2253	25222	500
1	2256	25262	500
1	2259	25292	500
1	2262	25323	500
1	2265	25353	500
1	2271	25422	500
1	2274	25467	500
1	2277	25497	500
1	2280	25532	500
1	2283	25563	500
1	2289	25629	500
1	2292	25670	500
1	2295	25702	500
1	2298	25734	500
1	2301	25764	500
1	2304	25797	500
1	2307	25832	500
1	2313	25898	500
1	2319	25958	500
1	2325	26021	500
1	2331	26097	500
1	2334	26128	500
1	2340	26194	500
1	2343	26225	500
1	2346	26256	500
1	2352	26336	500
1	2358	26399	500
1	2364	26466	500
1	2370	26531	500
1	2382	26671	500
1	2388	26740	500
1	2400	26871	500
1	2406	26934	500
1	2409	26965	500
1	2412	26997	500
1	2418	27066	500
1	2427	27173	500
1	2430	27237	500
1	2433	27269	500
1	2436	27299	500
1	2442	27363	500
1	2454	27500	500
1	2457	27532	500
1	2460	27570	500
1	2463	27607	500
1	2472	27702	500
1	2475	27733	500
1	2478	27764	500
1	2481	27796	500
1	2490	27887	500
1	2493	27918	500
1	2496	27951	500
1	2499	27982	500
1	2502	28022	500
1	2505	28055	500
1	2511	28118	500
1	2514	28148	500
1	2520	28212	500
1	2523	28250	500
1	2526	28286	500
1	2529	28316	500
1	2532	28350	500
1	2535	28380	500
1	2538	28434	500
1	2547	28533	500
1	2553	28605	500
1	2556	28636	500
1	2559	28666	500
1	2562	28706	500
1	2571	28809	500
1	2574	28839	500
1	2583	28934	500
1	2586	28969	500
1	2592	29040	500
1	2595	29078	500
1	2607	29204	500
1	2610	29234	500
1	2613	29266	500
1	2619	29337	500
1	2622	29369	500
1	2637	29528	500
1	2640	29559	500
1	2652	29684	500
1	2655	29714	500
1	2661	29776	500
1	2664	29815	500
1	2667	29845	500
1	2670	29875	500
1	2676	29935	500
1	2682	30004	500
1	2685	30039	500
1	2688	30072	500
1	2691	30104	500
1	2694	30135	500
1	2700	30210	500
1	2703	30244	500
1	2706	30275	500
1	2709	30305	500
1	2712	30341	500
1	2715	30379	500
1	2718	30414	500
1	2721	30448	500
1	2724	30481	500
1	2727	30514	500
1	2730	30545	500
1	2733	30575	500
1	2739	30648	500
1	2748	30762	500
1	2751	30794	500
1	2763	30917	500
1	2766	30948	500
1	2769	30980	500
1	2772	31010	500
1	2775	31049	500
1	2781	31122	500
1	2784	31165	500
1	2796	31329	500
1	2799	31360	500
1	2805	31426	500
1	2808	31460	500
1	2814	31528	500
1	2823	31623	500
1	2826	31655	500
1	2835	31750	500
1	2838	31780	500
1	2841	31812	500
1	2844	31843	500
1	2847	31875	500
1	2850	31906	500
1	2853	31940	500
1	2856	31971	500
1	2859	32002	500
1	2862	32038	500
1	2865	32080	500
1	2868	32127	500
1	2871	32165	500
1	2874	32195	500
1	2880	32266	500
1	2892	32399	500
1	2895	32435	500
1	2898	32475	500
1	2901	32508	500
1	2904	32554	500
1	2907	32588	500
1	2910	32619	500
1	2913	32652	500
1	2916	32682	500
1	2922	32757	500
1	2925	32791	500
1	2928	32823	500
1	2931	32853	500
1	2934	32884	500
1	2937	32918	500
1	2943	32990	500
1	2949	33065	500
1	2952	33096	500
1	2955	33126	500
1	2961	33193	500
1	2964	33224	500
1	2973	33328	500
1	2976	33361	500
1	2979	33392	500
1	2991	33527	500
1	2994	33563	500
1	2997	33593	500
1	3003	33658	500
1	3012	33776	500
1	3015	33822	500
1	3033	34030	500
1	3042	34129	500
1	3051	34223	500
1	3054	34253	500
1	3060	34316	500
1	3063	34359	500
1	3069	34425	500
1	3075	34488	500
1	3078	34532	500
1	3081	34563	500
1	3084	34599	500
1	3096	34744	500
1	3099	34780	500
1	3102	34819	500
1	3105	34853	500
1	3108	34884	500
1	3111	34919	500
1	3114	34951	500
1	3120	35033	500
1	3123	35071	500
1	3126	35105	500
1	3129	35137	500
1	3132	35167	500
1	3135	35202	500
1	3141	35263	500
1	3144	35294	500
1	3147	35327	500
1	3153	35389	500
1	3156	35420	500
1	3162	35480	500
1	3168	35541	500
1	3171	35572	500
1	3174	35603	500
1	3177	35644	500
1	3180	35681	500
1	3183	35719	500
1	3189	35795	500
1	3204	35970	500
1	3210	36046	500
1	3213	36079	500
1	3216	36109	500
1	3222	36176	500
1	3225	36210	500
1	3237	36342	500
1	3243	36427	500
1	3249	36488	500
1	3252	36519	500
1	3255	36549	500
1	3258	36581	500
1	3261	36615	500
1	3264	36646	500
1	3270	36709	500
1	3279	36807	500
1	3282	36840	500
1	3285	36871	500
1	3294	36967	500
1	3300	37031	500
1	3303	37065	500
1	3306	37095	500
1	3309	37131	500
1	3315	37199	500
1	3318	37230	500
1	3321	37263	500
1	3324	37293	500
1	3330	37359	500
1	3333	37393	500
1	3336	37427	500
1	3342	37493	500
1	3345	37528	500
1	3348	37563	500
1	3351	37599	500
1	3357	37666	500
1	3363	37734	500
1	3369	37807	500
1	3372	37847	500
1	3375	37879	500
1	3378	37910	500
1	3384	37974	500
1	3393	38076	500
1	3396	38109	500
1	3402	38174	500
1	3405	38205	500
1	3408	38235	500
1	3411	38268	500
1	3414	38299	500
1	3417	38338	500
1	3423	38407	500
1	3426	38438	500
1	3429	38468	500
1	3438	38565	500
1	3441	38595	500
1	3447	38659	500
1	3450	38689	500
1	3453	38721	500
1	3477	39005	500
1	3480	39042	500
1	3489	39136	500
1	3495	39207	500
1	3504	39306	500
1	3507	39347	500
1	3513	39411	500
1	3519	39481	500
1	3522	39512	500
1	3525	39544	500
1	3528	39574	500
1	3534	39640	500
1	3537	39671	500
1	3546	39774	500
1	3552	39843	500
1	3555	39881	500
1	3558	39913	500
1	3561	39943	500
1	3564	39975	500
1	3567	40008	500
1	3570	40049	500
1	3573	40080	500
1	3576	40126	500
1	3582	40194	500
1	3585	40230	500
1	3591	40308	500
1	3594	40338	500
1	3597	40372	500
1	3603	40442	500
1	3606	40474	500
1	3609	40506	500
1	3615	40570	500
1	3618	40607	500
1	3624	40669	500
1	3627	40704	500
1	3630	40736	500
1	3636	40812	500
1	3639	40843	500
1	3645	40917	500
1	3654	41018	500
1	3660	41092	500
1	3663	41122	500
1	3666	41156	500
1	3669	41187	500
1	3672	41217	500
1	3675	41249	500
1	3687	41395	500
1	3690	41428	500
1	3693	41458	500
1	3696	41488	500
1	3699	41520	500
1	3708	41619	500
1	3711	41651	500
1	3714	41682	500
1	3717	41727	500
1	3720	41762	500
1	3723	41792	500
1	3729	41862	500
1	3732	41901	500
1	3741	41996	500
1	3744	42028	500
1	3747	42074	500
1	3750	42108	500
1	3753	42144	500
1	3756	42180	500
1	3762	42251	500
1	3765	42283	500
1	3768	42317	500
1	3771	42347	500
1	3777	42409	500
1	3780	42440	500
1	3783	42477	500
1	3786	42513	500
1	3789	42568	500
1	3792	42605	500
1	3798	42672	500
1	3801	42717	500
1	3804	42757	500
1	3807	42799	500
1	3810	42833	500
1	3813	42867	500