version 2
run Exponencial-0-20110407-00:32:44-240
attr configname Exponencial
attr datetime 20110407-00:32:44
attr experiment Exponencial
attr inifile C:/Users/Mariusz/Desktop/Tirt/omnetpp.ini
attr iterationvars ""
attr iterationvars2 $repetition=0
attr measurement ""
attr network Network2
attr processid 240
attr repetition 0
attr replication #0
attr resultdir results
attr runnumber 0
attr seedset 0

vector 0  Network2.receiver  arrivals  ETV
attr interpolationmode  none
vector 1  Network2.receiver  sizes  ETV
0	2	0	0
0	4	102	102
0	6	204	102
0	8	307	103
0	10	412	105
0	12	514	102
0	14	619	105
0	16	721	102
0	18	826	105
0	20	927	101
0	22	1029	102
0	24	1132	103
0	26	1233	101
0	28	1334	101
0	30	1435	101
0	32	1541	106
0	34	1641	100
0	36	1750	109
0	38	1850	100
0	40	1951	101
0	42	2052	101
0	44	2156	104
0	46	2261	105
0	48	2363	102
0	50	2464	101
0	52	2566	102
0	54	2667	101
0	56	2774	107
0	58	2879	105
0	60	2979	100
0	62	3080	101
0	64	3180	100
0	66	3283	103
0	68	3383	100
0	70	3484	101
0	72	3589	105
0	74	3698	109
0	76	3802	104
0	78	3902	100
0	80	4008	106
0	82	4114	106
0	84	4225	111
0	86	4326	101
0	88	4430	104
0	90	4534	104
0	92	4635	101
0	94	4737	102
0	96	4841	104
0	98	4944	103
0	100	5044	100
0	102	5147	103
0	104	5250	103
0	106	5352	102
0	108	5452	100
0	110	5554	102
0	112	5662	108
1	2	0	500
1	4	102	500
1	6	204	500
1	8	307	500
1	10	412	500
1	12	514	500
1	14	619	500
1	16	721	500
1	18	826	500
1	20	927	500
1	22	1029	500
1	24	1132	500
1	26	1233	500
1	28	1334	500
1	30	1435	500
1	32	1541	500
1	34	1641	500
1	36	1750	500
1	38	1850	500
1	40	1951	500
1	42	2052	500
1	44	2156	500
1	46	2261	500
1	48	2363	500
1	50	2464	500
1	52	2566	500
1	54	2667	500
1	56	2774	500
1	58	2879	500
1	60	2979	500
1	62	3080	500
1	64	3180	500
1	66	3283	500
1	68	3383	500
1	70	3484	500
1	72	3589	500
1	74	3698	500
1	76	3802	500
1	78	3902	500
1	80	4008	500
1	82	4114	500
1	84	4225	500
1	86	4326	500
1	88	4430	500
1	90	4534	500
1	92	4635	500
1	94	4737	500
1	96	4841	500
1	98	4944	500
1	100	5044	500
1	102	5147	500
1	104	5250	500
1	106	5352	500
1	108	5452	500
1	110	5554	500
1	112	5662	500
