version 2
run MMPP-0-20110331-12:06:12-1508
attr configname MMPP
attr datetime 20110331-12:06:12
attr experiment MMPP
attr inifile C:/Users/Mariusz/Desktop/Tirt/omnetpp.ini
attr iterationvars ""
attr iterationvars2 $repetition=0
attr measurement ""
attr network Network4
attr processid 1508
attr repetition 0
attr replication #0
attr resultdir results
attr runnumber 0
attr seedset 0

vector 0  Network4.receiver  arrivals  ETV
attr interpolationmode  none
0	2	0	0
0	4	3	3
0	6	9	6
0	8	14	5
0	10	17	3
0	12	25	8
0	14	31	6
0	16	37	6
0	18	40	3
0	20	44	4
0	22	46	2
0	24	47	1
0	26	50	3
0	28	57	7
0	30	61	4
0	32	66	5
0	34	69	3
0	36	73	4
0	38	78	5
0	40	82	4
0	42	86	4
0	44	89	3
0	46	92	3
0	48	96	4
0	50	98	2
0	52	102	4
0	54	108	6
0	56	111	3
0	58	112	1
0	60	115	3
0	62	117	2
0	64	122	5
0	66	127	5
0	68	132	5
0	70	135	3
0	72	135	0
0	74	141	6
0	76	144	3
0	78	145	1
0	80	148	3
0	82	151	3
0	84	156	5
0	86	163	7
0	88	171	8
0	90	177	6
0	92	183	6
0	94	189	6
0	96	194	5
0	98	199	5
0	100	204	5
0	102	206	2
0	104	211	5
0	106	216	5
0	108	219	3
0	110	226	7
0	112	227	1
0	114	233	6
0	116	236	3
0	118	239	3
0	120	245	6
0	122	246	1
0	124	249	3
0	126	252	3
0	128	255	3
0	130	257	2
0	132	263	6
0	134	265	2
0	136	267	2
0	138	268	1
0	140	275	7
0	142	277	2
0	144	281	4
0	146	287	6
0	148	295	8
0	150	297	2
0	152	299	2
0	154	306	7
0	156	308	2
0	158	310	2
0	160	316	6
0	162	317	1
0	164	321	4
0	166	329	8
0	168	333	4
0	170	334	1
0	172	341	7
0	174	344	3
0	176	350	6
0	178	356	6
0	180	361	5
0	182	365	4
0	184	368	3
0	186	372	4
0	188	377	5
0	190	380	3
0	192	382	2
0	194	387	5
0	196	389	2
0	198	392	3
0	200	395	3
0	202	398	3
0	204	402	4
0	206	404	2
0	208	407	3
0	210	408	1
0	212	408	0
0	214	410	2
0	216	417	7
0	218	419	2
0	220	425	6
0	222	434	9
0	224	441	7
0	226	443	2
0	228	450	7
0	230	452	2
0	232	456	4
0	234	460	4
0	236	462	2
0	238	468	6
0	240	475	7
0	242	477	2
0	244	481	4
0	246	484	3
0	248	484	0
0	250	488	4
0	252	490	2
0	254	495	5
0	256	501	6
0	258	503	2
0	260	505	2
0	262	508	3
0	264	514	6
0	266	518	4
0	268	520	2
0	270	527	7
0	272	529	2
0	274	530	1
0	276	533	3
0	278	537	4
0	280	541	4
0	282	546	5
0	284	550	4
0	286	554	4
0	288	558	4
0	290	561	3
0	292	564	3
0	294	568	4
0	296	572	4
0	298	577	5
0	300	583	6
0	302	585	2
0	304	589	4
0	306	594	5
0	308	599	5
0	310	608	9
0	312	609	1
0	314	613	4
0	316	620	7
0	318	623	3
0	320	626	3
0	322	630	4
0	324	635	5
0	326	638	3
0	328	640	2
0	330	643	3
0	332	644	1
0	334	647	3
0	336	649	2
0	338	653	4
0	340	654	1
0	342	658	4
0	344	661	3
0	346	664	3
0	348	670	6
0	350	674	4
0	352	678	4
0	354	686	8
0	356	692	6
0	358	697	5
0	360	703	6
0	362	710	7
0	364	713	3
0	366	717	4
0	368	720	3
0	370	725	5
0	372	728	3
0	374	733	5
0	376	737	4
0	378	742	5
0	380	749	7
0	382	751	2
0	384	755	4
0	386	758	3
0	388	761	3
0	390	764	3
0	392	769	5
0	394	771	2
0	396	775	4
0	398	781	6
0	400	785	4
0	402	790	5
0	404	793	3
0	406	800	7
0	408	802	2
0	410	805	3
0	412	810	5
0	414	817	7
0	416	823	6
0	418	825	2
0	420	828	3
0	422	830	2
0	424	834	4
0	426	837	3
0	428	841	4
0	430	845	4
0	432	847	2
0	434	853	6
0	436	861	8
0	438	861	0
0	440	868	7
0	442	871	3
0	444	878	7
0	446	883	5
0	448	889	6
0	450	897	8
0	452	901	4
0	454	904	3
0	456	905	1
0	458	908	3
0	460	913	5
0	462	919	6
0	464	922	3
0	466	924	2
0	468	928	4
0	470	930	2
0	472	933	3
0	474	939	6
0	476	943	4
0	478	948	5
0	480	953	5
0	482	955	2
0	484	960	5
0	486	965	5
0	488	972	7
0	490	975	3
0	492	981	6
0	494	990	9
0	496	997	7
0	498	999	2
0	500	1001	2
0	502	1003	2
0	504	1007	4
0	506	1010	3
0	508	1017	7
0	510	1024	7
0	512	1027	3
0	514	1030	3
0	516	1031	1
0	518	1035	4
0	520	1036	1
0	522	1040	4
0	524	1043	3
0	526	1048	5
0	528	1050	2
0	530	1054	4
0	532	1056	2
0	534	1060	4
0	536	1063	3
0	538	1067	4
0	540	1075	8
0	542	1079	4
0	544	1082	3
0	546	1085	3
0	548	1089	4
0	550	1091	2
0	552	1096	5
0	554	1096	0
0	556	1104	8
0	558	1105	1
0	560	1112	7
0	562	1114	2
0	564	1116	2
0	566	1116	0
0	568	1117	1
0	570	1119	2
0	572	1121	2
0	574	1124	3
0	576	1131	7
0	578	1135	4
0	580	1137	2
0	582	1142	5
0	584	1143	1
0	586	1148	5
0	588	1155	7
0	590	1159	4
0	592	1162	3
0	594	1166	4
0	596	1170	4
0	598	1171	1
0	600	1174	3
0	602	1178	4
0	604	1185	7
0	606	1192	7
0	608	1197	5
0	610	1199	2
0	612	1202	3
0	614	1208	6
0	616	1216	8
0	618	1222	6
0	620	1226	4
0	622	1232	6
0	624	1237	5
0	626	1240	3
0	628	1244	4
0	630	1248	4
0	632	1249	1
0	634	1252	3
0	636	1255	3
0	638	1262	7
0	640	1266	4
0	642	1268	2
0	644	1269	1
0	646	1277	8
0	648	1285	8
0	650	1290	5
0	652	1293	3
0	654	1295	2
0	656	1301	6
0	658	1303	2
0	660	1305	2
0	662	1306	1
0	664	1309	3
0	666	1314	5
0	668	1318	4
0	670	1324	6
0	672	1327	3
0	674	1329	2
0	676	1331	2
0	678	1335	4
0	680	1344	9
0	682	1349	5
0	684	1352	3
0	686	1356	4
0	688	1362	6
0	690	1366	4
0	692	1371	5
0	694	1376	5
0	696	1380	4
0	698	1385	5
0	700	1389	4
0	702	1393	4
0	704	1397	4
0	706	1401	4
0	708	1406	5
0	710	1414	8
0	712	1416	2
0	714	1420	4
0	716	1423	3
0	718	1430	7
0	720	1435	5
0	722	1438	3
0	724	1443	5
0	726	1445	2
0	728	1448	3
0	730	1451	3
0	732	1457	6
0	734	1464	7
0	736	1467	3
0	738	1473	6
0	740	1474	1
0	742	1480	6
0	744	1481	1
0	746	1484	3
0	748	1490	6
0	750	1495	5
0	752	1498	3
0	754	1503	5
0	756	1508	5
0	758	1515	7
0	760	1519	4
0	762	1523	4
0	764	1529	6
0	766	1533	4
0	768	1536	3
0	770	1540	4
0	772	1542	2
0	774	1548	6
0	776	1553	5
0	778	1555	2
0	780	1561	6
0	782	1567	6
0	784	1574	7
0	786	1577	3
0	788	1578	1
0	790	1579	1
0	792	1584	5
0	794	1586	2
0	796	1594	8
0	798	1599	5
0	800	1603	4
0	802	1604	1
0	804	1607	3
0	806	1611	4
0	808	1613	2
0	810	1614	1
0	812	1616	2
0	814	1622	6
0	816	1627	5
0	818	1635	8
0	820	1638	3
0	822	1641	3
0	824	1645	4
0	826	1649	4
0	828	1652	3
0	830	1655	3
0	832	1659	4
0	834	1661	2
0	836	1664	3
0	838	1670	6
0	840	1671	1
0	842	1671	0
0	844	1677	6
0	846	1679	2
0	848	1684	5
0	850	1686	2
0	852	1688	2
0	854	1689	1
0	856	1693	4
0	858	1698	5
0	860	1699	1
0	862	1699	0
0	864	1702	3
0	866	1706	4
0	868	1708	2
0	870	1715	7
0	872	1719	4
0	874	1725	6
0	876	1731	6
0	878	1736	5
0	880	1738	2
0	882	1741	3
0	884	1747	6
0	886	1751	4
0	888	1760	9
0	890	1765	5
0	892	1769	4
0	894	1773	4
0	896	1776	3
0	898	1780	4
0	900	1786	6
0	902	1788	2
0	904	1794	6
0	906	1797	3
0	908	1801	4
0	910	1806	5
0	912	1811	5
0	914	1813	2
0	916	1819	6
0	918	1821	2
0	920	1823	2
0	922	1828	5
0	924	1829	1
0	926	1832	3
0	928	1838	6
0	930	1842	4
0	932	1846	4
0	934	1850	4
0	936	1851	1
0	938	1851	0
0	940	1854	3
0	942	1859	5
0	944	1862	3
0	946	1871	9
0	948	1877	6
0	950	1885	8
0	952	1893	8
0	954	1900	7
0	956	1906	6
0	958	1907	1
0	960	1909	2
0	962	1917	8
0	964	1921	4
0	966	1926	5
0	968	1927	1
0	970	1930	3
0	972	1931	1
0	974	1934	3
0	976	1938	4
0	978	1942	4
0	980	1943	1
0	982	1949	6
0	984	1953	4
0	986	1956	3
0	988	1958	2
0	990	1960	2
0	992	1962	2
0	994	1964	2
0	996	1968	4
0	998	1970	2
0	1000	1973	3
0	1002	1976	3
0	1004	1982	6
0	1006	1986	4
0	1008	1995	9
0	1010	2001	6
0	1012	2004	3
0	1014	2012	8
0	1016	2019	7
0	1018	2023	4
0	1020	2027	4
0	1022	2032	5
0	1024	2037	5
0	1026	2041	4
0	1028	2044	3
0	1030	2047	3
0	1032	2050	3
0	1034	2053	3
0	1036	2058	5
0	1038	2060	2
0	1040	2061	1
0	1042	2067	6
0	1044	2072	5
0	1046	2076	4
0	1048	2080	4
0	1050	2084	4
0	1052	2087	3
0	1054	2090	3
0	1056	2094	4
0	1058	2103	9
0	1060	2104	1
0	1062	2110	6
0	1064	2114	4
0	1066	2118	4
0	1068	2121	3
0	1070	2125	4
0	1072	2130	5
0	1074	2134	4
0	1076	2135	1
0	1078	2139	4
0	1080	2144	5
0	1082	2146	2
0	1084	2147	1
0	1086	2151	4
0	1088	2156	5
0	1090	2159	3
0	1092	2161	2
0	1094	2167	6
0	1096	2176	9
0	1098	2187	11
0	1100	2192	5
0	1102	2192	0
0	1104	2196	4
0	1106	2198	2
0	1108	2199	1
0	1110	2205	6
0	1112	2210	5
0	1114	2214	4
0	1116	2222	8
0	1118	2228	6
0	1120	2232	4
0	1122	2234	2
0	1124	2241	7
0	1126	2242	1
0	1128	2245	3
0	1130	2250	5
0	1132	2253	3
0	1134	2255	2
0	1136	2257	2
0	1138	2260	3
0	1140	2261	1
0	1142	2262	1
0	1144	2265	3
0	1146	2270	5
0	1148	2275	5
0	1150	2277	2
0	1152	2283	6
0	1154	2290	7
0	1156	2294	4
0	1158	2298	4
0	1160	2300	2
0	1162	2306	6
0	1164	2313	7
0	1166	2316	3
0	1168	2323	7
0	1170	2326	3
0	1172	2327	1
0	1174	2335	8
0	1176	2342	7
0	1178	2346	4
0	1180	2348	2
0	1182	2351	3
0	1184	2353	2
0	1186	2357	4
0	1188	2360	3
0	1190	2368	8
0	1192	2373	5
0	1194	2380	7
0	1196	2382	2
0	1198	2385	3
0	1200	2387	2
0	1202	2392	5
0	1204	2397	5
0	1206	2399	2
0	1208	2406	7
0	1210	2411	5
0	1212	2411	0
0	1214	2414	3
0	1216	2418	4
0	1218	2425	7
0	1220	2429	4
0	1222	2435	6
0	1224	2439	4
0	1226	2445	6
0	1228	2454	9
0	1230	2459	5
0	1232	2461	2
0	1234	2467	6
0	1236	2469	2
0	1238	2476	7
0	1240	2479	3
0	1242	2483	4
0	1244	2487	4
0	1246	2491	4
0	1248	2492	1
0	1250	2497	5
0	1252	2501	4
0	1254	2507	6
0	1256	2510	3
0	1258	2513	3
0	1260	2516	3
0	1262	2524	8
0	1264	2529	5
0	1266	2531	2
0	1268	2535	4
0	1270	2540	5
0	1272	2542	2
0	1274	2546	4
0	1276	2550	4
0	1278	2552	2
0	1280	2555	3
0	1282	2562	7
0	1284	2563	1
0	1286	2570	7
0	1288	2574	4
0	1290	2578	4
0	1292	2579	1
0	1294	2581	2
0	1296	2584	3
0	1298	2591	7
0	1300	2597	6
0	1302	2603	6
0	1304	2604	1
0	1306	2605	1
0	1308	2610	5
0	1310	2615	5
0	1312	2616	1
0	1314	2622	6
0	1316	2628	6
0	1318	2631	3
0	1320	2635	4
0	1322	2636	1
0	1324	2642	6
0	1326	2649	7
0	1328	2653	4
0	1330	2659	6
0	1332	2660	1
0	1334	2667	7
0	1336	2676	9
0	1338	2678	2
0	1340	2683	5
0	1342	2685	2
0	1344	2685	0
0	1346	2688	3
0	1348	2693	5
0	1350	2698	5
0	1352	2702	4
0	1354	2705	3
0	1356	2707	2
0	1358	2712	5
0	1360	2716	4
0	1362	2718	2
0	1364	2723	5
0	1366	2729	6
0	1368	2730	1
0	1370	2733	3
0	1372	2736	3
0	1374	2741	5
0	1376	2746	5
0	1378	2748	2
0	1380	2753	5
0	1382	2754	1
0	1384	2757	3
0	1386	2759	2
0	1388	2762	3
0	1390	2765	3
0	1392	2767	2
0	1394	2771	4
0	1396	2775	4
0	1398	2776	1
0	1400	2781	5
0	1402	2783	2
0	1404	2786	3
0	1406	2788	2
0	1408	2793	5
0	1410	2796	3
0	1412	2803	7
0	1414	2806	3
0	1416	2807	1
0	1418	2809	2
0	1420	2817	8
0	1422	2823	6
0	1424	2827	4
0	1426	2830	3
0	1428	2832	2
0	1430	2841	9
0	1432	2848	7
0	1434	2851	3
0	1436	2856	5
0	1438	2866	10
0	1440	2872	6
0	1442	2877	5
0	1444	2882	5
0	1446	2890	8
0	1448	2900	10
0	1450	2906	6
0	1452	2909	3
0	1454	2914	5
0	1456	2917	3
0	1458	2921	4
0	1460	2924	3
0	1462	2932	8
0	1464	2936	4
0	1466	2942	6
0	1468	2945	3
0	1470	2950	5
0	1472	2954	4
0	1474	2957	3
0	1476	2962	5
0	1478	2966	4
0	1480	2971	5
0	1482	2973	2
0	1484	2975	2
0	1486	2976	1
0	1488	2979	3
0	1490	2989	10
0	1492	2993	4
0	1494	2995	2
0	1496	3000	5
0	1498	3005	5
0	1500	3006	1
0	1502	3010	4
0	1504	3013	3
0	1506	3015	2
0	1508	3018	3
0	1510	3018	0
0	1512	3022	4
0	1514	3024	2
0	1516	3028	4
0	1518	3036	8
0	1520	3038	2
0	1522	3044	6
0	1524	3048	4
0	1526	3053	5
0	1528	3057	4
0	1530	3062	5
0	1532	3064	2
0	1534	3068	4
0	1536	3068	0
0	1538	3073	5
0	1540	3080	7
0	1542	3082	2
0	1544	3087	5
0	1546	3089	2
0	1548	3094	5
0	1550	3100	6
0	1552	3103	3
0	1554	3105	2
0	1556	3106	1
0	1558	3113	7
0	1560	3118	5
0	1562	3122	4
0	1564	3127	5
0	1566	3132	5
0	1568	3136	4
0	1570	3139	3
0	1572	3146	7
0	1574	3149	3
0	1576	3150	1
0	1578	3153	3
0	1580	3158	5
0	1582	3162	4
0	1584	3168	6
0	1586	3173	5
0	1588	3176	3
0	1590	3179	3
0	1592	3182	3
0	1594	3186	4
0	1596	3189	3
0	1598	3196	7
0	1600	3199	3
0	1602	3203	4
0	1604	3205	2
0	1606	3209	4
0	1608	3211	2
0	1610	3213	2
0	1612	3219	6
0	1614	3223	4
0	1616	3225	2
0	1618	3228	3
0	1620	3233	5
0	1622	3237	4
0	1624	3242	5
0	1626	3246	4
0	1628	3251	5
0	1630	3253	2
0	1632	3256	3
0	1634	3261	5
0	1636	3267	6
0	1638	3269	2
0	1640	3272	3
0	1642	3279	7
0	1644	3283	4
0	1646	3287	4
0	1648	3289	2
0	1650	3292	3
0	1652	3297	5
0	1654	3302	5
0	1656	3307	5
0	1658	3309	2
0	1660	3311	2
0	1662	3314	3
0	1664	3319	5
0	1666	3324	5
0	1668	3330	6
0	1670	3337	7
0	1672	3339	2
0	1674	3343	4
0	1676	3347	4
0	1678	3353	6
0	1680	3359	6
0	1682	3366	7
0	1684	3368	2
0	1686	3371	3
0	1688	3375	4
0	1690	3380	5
0	1692	3382	2
0	1694	3387	5
0	1696	3389	2
0	1698	3393	4
0	1700	3400	7
0	1702	3408	8
0	1704	3409	1
0	1706	3413	4
0	1708	3413	0
0	1710	3419	6
0	1712	3423	4
0	1714	3428	5
0	1716	3430	2
0	1718	3435	5
0	1720	3438	3
0	1722	3439	1
0	1724	3444	5
0	1726	3447	3
0	1728	3452	5
0	1730	3460	8
0	1732	3464	4
0	1734	3467	3
0	1736	3470	3
0	1738	3478	8
0	1740	3482	4
0	1742	3486	4
0	1744	3490	4
0	1746	3492	2
0	1748	3499	7
0	1750	3505	6
0	1752	3510	5
0	1754	3513	3
0	1756	3520	7
0	1758	3526	6
0	1760	3532	6
0	1762	3539	7
0	1764	3541	2
0	1766	3544	3
0	1768	3550	6
0	1770	3555	5
0	1772	3556	1
0	1774	3564	8
0	1776	3566	2
0	1778	3571	5
0	1780	3576	5
0	1782	3583	7
0	1784	3584	1
0	1786	3589	5
0	1788	3597	8
0	1790	3602	5
0	1792	3606	4
0	1794	3609	3
0	1796	3614	5
0	1798	3620	6
0	1800	3627	7
0	1802	3629	2
0	1804	3635	6
0	1806	3642	7
0	1808	3651	9
0	1810	3658	7
0	1812	3660	2
0	1814	3665	5
0	1816	3669	4
0	1818	3672	3
0	1820	3677	5
0	1822	3682	5
0	1824	3686	4
0	1826	3691	5
0	1828	3701	10
0	1830	3702	1
0	1832	3709	7
0	1834	3714	5
0	1836	3720	6
0	1838	3723	3
0	1840	3728	5
0	1842	3731	3
0	1844	3733	2
0	1846	3736	3
0	1848	3741	5
0	1850	3745	4
0	1852	3750	5
0	1854	3755	5
0	1856	3758	3
0	1858	3759	1
0	1860	3761	2
0	1862	3765	4
0	1864	3771	6
0	1866	3777	6
0	1868	3784	7
0	1870	3790	6
0	1872	3794	4
0	1874	3794	0
0	1876	3796	2
0	1878	3801	5
0	1880	3805	4
0	1882	3809	4
0	1884	3813	4
0	1886	3816	3
0	1888	3821	5
0	1890	3824	3
0	1892	3830	6
0	1894	3833	3
0	1896	3836	3
0	1898	3844	8
0	1900	3846	2
0	1902	3851	5
0	1904	3854	3
0	1906	3855	1
0	1908	3857	2
0	1910	3861	4
0	1912	3864	3
0	1914	3865	1
0	1916	3867	2
0	1918	3870	3
0	1920	3874	4
0	1922	3880	6
0	1924	3882	2
0	1926	3883	1
0	1928	3888	5
0	1930	3893	5
0	1932	3900	7
0	1934	3903	3
0	1936	3910	7
0	1938	3918	8
0	1940	3921	3
0	1942	3928	7
0	1944	3931	3
0	1946	3933	2
0	1948	3940	7
0	1950	3942	2
0	1952	3946	4
0	1954	3953	7
0	1956	3958	5
0	1958	3959	1
0	1960	3960	1
0	1962	3961	1
0	1964	3963	2
0	1966	3964	1
0	1968	3966	2
0	1970	3973	7
0	1972	3975	2
0	1974	3984	9
0	1976	3987	3
0	1978	3994	7
0	1980	3997	3
0	1982	4002	5
0	1984	4008	6
0	1986	4011	3
0	1988	4013	2
0	1990	4019	6
0	1992	4025	6
0	1994	4030	5
0	1996	4033	3
0	1998	4039	6
0	2000	4041	2
0	2002	4046	5
0	2004	4048	2
0	2006	4056	8
0	2008	4064	8
0	2010	4068	4
0	2012	4073	5
0	2014	4078	5
0	2016	4082	4
0	2018	4089	7
0	2020	4094	5
0	2022	4097	3
0	2024	4103	6
0	2026	4104	1
0	2028	4106	2
0	2030	4109	3
0	2032	4112	3
0	2034	4116	4
0	2036	4121	5
0	2038	4124	3
0	2040	4127	3
0	2042	4133	6
0	2044	4140	7
0	2046	4144	4
0	2048	4146	2
0	2050	4149	3
0	2052	4152	3
0	2054	4157	5
0	2056	4161	4
0	2058	4164	3
0	2060	4171	7
0	2062	4178	7
0	2064	4183	5
0	2066	4187	4
0	2068	4190	3
0	2070	4192	2
0	2072	4194	2
0	2074	4194	0
0	2076	4202	8
0	2078	4206	4
0	2080	4212	6
0	2082	4219	7
0	2084	4223	4
0	2086	4226	3
0	2088	4233	7
0	2090	4235	2
0	2092	4238	3
0	2094	4240	2
0	2096	4246	6
0	2098	4247	1
0	2100	4250	3
0	2102	4256	6
0	2104	4261	5
0	2106	4265	4
0	2108	4267	2
0	2110	4274	7
0	2112	4279	5
0	2114	4289	10
0	2116	4294	5
0	2118	4298	4
0	2120	4302	4
0	2122	4306	4
0	2124	4310	4
0	2126	4315	5
0	2128	4316	1
0	2130	4320	4
0	2132	4322	2
0	2134	4326	4
0	2136	4332	6
0	2138	4335	3
0	2140	4344	9
0	2142	4345	1
0	2144	4346	1
0	2146	4349	3
0	2148	4354	5
0	2150	4362	8
0	2152	4366	4
0	2154	4370	4
0	2156	4374	4
0	2158	4377	3
0	2160	4382	5
0	2162	4384	2
0	2164	4388	4
0	2166	4392	4
0	2168	4394	2
0	2170	4398	4
0	2172	4404	6
0	2174	4409	5
0	2176	4413	4
0	2178	4415	2
0	2180	4419	4
0	2182	4420	1
0	2184	4424	4
0	2186	4429	5
0	2188	4433	4
0	2190	4437	4
0	2192	4439	2
0	2194	4440	1
0	2196	4442	2
0	2198	4446	4
0	2200	4450	4
0	2202	4457	7
0	2204	4460	3
0	2206	4465	5
0	2208	4469	4
0	2210	4473	4
0	2212	4476	3
0	2214	4481	5
0	2216	4481	0
0	2218	4485	4
0	2220	4492	7
0	2222	4497	5
0	2224	4503	6
0	2226	4507	4
0	2228	4510	3
0	2230	4513	3
0	2232	4519	6
0	2234	4527	8
0	2236	4530	3
0	2238	4533	3
0	2240	4538	5
0	2242	4540	2
0	2244	4545	5
0	2246	4550	5
0	2248	4554	4
0	2250	4559	5
0	2252	4564	5
0	2254	4568	4
0	2256	4570	2
0	2258	4576	6
0	2260	4577	1
0	2262	4583	6
0	2264	4584	1
0	2266	4588	4
0	2268	4593	5
0	2270	4594	1
0	2272	4598	4
0	2274	4602	4
0	2276	4603	1
0	2278	4604	1
0	2280	4605	1
0	2282	4609	4
0	2284	4611	2
0	2286	4615	4
0	2288	4619	4
0	2290	4625	6
0	2292	4627	2
0	2294	4637	10
0	2296	4642	5
0	2298	4650	8
0	2300	4654	4
0	2302	4657	3
0	2304	4659	2
0	2306	4663	4
0	2308	4666	3
0	2310	4670	4
0	2312	4673	3
0	2314	4678	5
0	2316	4678	0
0	2318	4681	3
0	2320	4686	5
0	2322	4690	4
0	2324	4693	3
0	2326	4700	7
0	2328	4706	6
0	2330	4711	5
0	2332	4717	6
0	2334	4719	2
0	2336	4726	7
0	2338	4729	3
0	2340	4734	5
0	2342	4738	4
0	2344	4740	2
0	2346	4745	5
0	2348	4747	2
0	2350	4748	1
0	2352	4751	3
0	2354	4756	5
0	2356	4760	4
0	2358	4765	5
0	2360	4770	5
0	2362	4771	1
0	2364	4775	4
0	2366	4781	6
0	2368	4786	5
0	2370	4792	6
0	2372	4796	4
0	2374	4803	7
0	2376	4809	6
0	2378	4815	6
0	2380	4816	1
0	2382	4818	2
0	2384	4820	2
0	2386	4824	4
0	2388	4826	2
0	2390	4830	4
0	2392	4831	1
0	2394	4834	3
0	2396	4841	7
0	2398	4844	3
0	2400	4849	5
0	2402	4853	4
0	2404	4856	3
0	2406	4861	5
0	2408	4867	6
0	2410	4870	3
0	2412	4873	3
0	2414	4878	5
0	2416	4882	4
0	2418	4893	11
0	2420	4898	5
0	2422	4905	7
0	2424	4909	4
0	2426	4911	2
0	2428	4911	0
0	2430	4913	2
0	2432	4915	2
0	2434	4919	4
0	2436	4924	5
0	2438	4932	8
0	2440	4936	4
0	2442	4939	3
0	2444	4941	2
0	2446	4946	5
0	2448	4951	5
0	2450	4956	5
0	2452	4962	6
0	2454	4964	2
0	2456	4971	7
0	2458	4974	3
0	2460	4977	3
0	2462	4981	4
0	2464	4985	4
0	2466	4988	3
0	2468	4989	1
0	2470	4993	4
0	2472	4997	4
0	2474	4999	2
0	2476	5005	6
0	2478	5008	3
0	2480	5010	2
0	2482	5014	4
0	2484	5021	7
0	2486	5024	3
0	2488	5025	1
0	2490	5029	4
0	2492	5031	2
0	2494	5036	5
0	2496	5039	3
0	2498	5045	6
0	2500	5050	5
0	2502	5056	6
0	2504	5062	6
0	2506	5064	2
0	2508	5067	3
0	2510	5071	4
0	2512	5078	7
0	2514	5080	2
0	2516	5084	4
0	2518	5088	4
0	2520	5090	2
0	2522	5092	2
0	2524	5098	6
0	2526	5102	4
0	2528	5104	2
0	2530	5107	3
0	2532	5118	11
0	2534	5122	4
0	2536	5127	5
0	2538	5131	4
0	2540	5133	2
0	2542	5138	5
0	2544	5142	4
0	2546	5143	1
0	2548	5147	4
0	2550	5150	3
0	2552	5153	3
0	2554	5154	1
0	2556	5160	6
0	2558	5163	3
0	2560	5164	1
0	2562	5167	3
0	2564	5171	4
0	2566	5175	4
0	2568	5179	4
0	2570	5184	5
0	2572	5186	2
0	2574	5192	6
0	2576	5197	5
0	2578	5199	2
0	2580	5202	3
0	2582	5210	8
0	2584	5211	1
0	2586	5215	4
0	2588	5218	3
0	2590	5222	4
0	2592	5226	4
0	2594	5229	3
0	2596	5232	3
0	2598	5235	3
0	2600	5237	2
0	2602	5246	9
0	2604	5248	2
0	2606	5249	1
0	2608	5252	3
0	2610	5256	4
0	2612	5261	5
0	2614	5265	4
0	2616	5273	8
0	2618	5274	1
0	2620	5279	5
0	2622	5281	2
0	2624	5288	7
0	2626	5292	4
0	2628	5298	6
0	2630	5302	4
0	2632	5307	5
0	2634	5309	2
0	2636	5312	3
0	2638	5314	2
0	2640	5319	5
0	2642	5324	5
0	2644	5333	9
0	2646	5338	5
0	2648	5343	5
0	2650	5344	1
0	2652	5346	2
0	2654	5352	6
0	2656	5353	1
0	2658	5358	5
0	2660	5360	2
0	2662	5362	2
0	2664	5363	1
0	2666	5365	2
0	2668	5371	6
0	2670	5374	3
0	2672	5376	2
0	2674	5376	0
0	2676	5383	7
0	2678	5390	7
0	2680	5394	4
0	2682	5398	4
0	2684	5403	5
0	2686	5410	7
0	2688	5418	8
0	2690	5423	5
0	2692	5428	5
0	2694	5431	3
0	2696	5437	6
0	2698	5445	8
0	2700	5449	4
0	2702	5455	6
0	2704	5457	2
0	2706	5461	4
0	2708	5462	1
0	2710	5463	1
0	2712	5466	3
0	2714	5468	2
0	2716	5469	1
0	2718	5476	7
0	2720	5478	2
0	2722	5482	4
0	2724	5486	4
0	2726	5489	3
0	2728	5497	8
0	2730	5498	1
0	2732	5501	3
0	2734	5504	3
0	2736	5508	4
0	2738	5512	4
0	2740	5516	4
0	2742	5517	1
0	2744	5520	3
0	2746	5523	3
0	2748	5526	3
0	2750	5527	1
0	2752	5532	5
0	2754	5537	5
0	2756	5544	7
0	2758	5553	9
0	2760	5555	2
0	2762	5559	4
0	2764	5563	4
0	2766	5565	2
0	2768	5571	6
0	2770	5577	6
0	2772	5578	1
0	2774	5585	7
0	2776	5585	0
0	2778	5589	4
0	2780	5595	6
0	2782	5597	2
0	2784	5604	7
0	2786	5608	4
0	2788	5611	3
0	2790	5620	9
0	2792	5620	0
0	2794	5623	3
0	2796	5627	4
0	2798	5632	5
0	2800	5636	4
0	2802	5638	2
0	2804	5642	4
0	2806	5645	3
0	2808	5647	2
0	2810	5649	2
0	2812	5652	3
0	2814	5657	5
0	2816	5663	6
0	2818	5665	2
0	2820	5668	3
0	2822	5670	2
0	2824	5674	4
0	2826	5675	1
0	2828	5682	7
0	2830	5686	4
0	2832	5690	4
0	2834	5695	5
0	2836	5700	5
0	2838	5701	1
0	2840	5711	10
0	2842	5716	5
0	2844	5720	4
0	2846	5723	3
0	2848	5724	1
0	2850	5729	5
0	2852	5733	4
0	2854	5737	4
0	2856	5738	1
0	2858	5745	7
0	2860	5747	2
0	2862	5751	4
0	2864	5758	7
0	2866	5765	7
0	2868	5771	6
0	2870	5777	6
0	2872	5780	3
0	2874	5783	3
0	2876	5786	3
0	2878	5791	5
0	2880	5795	4
0	2882	5798	3
0	2884	5800	2
0	2886	5804	4
0	2888	5806	2
0	2890	5807	1
0	2892	5810	3
0	2894	5816	6
0	2896	5823	7
0	2898	5826	3
0	2900	5832	6
0	2902	5833	1
0	2904	5835	2
0	2906	5841	6
0	2908	5845	4
0	2910	5851	6
0	2912	5857	6
0	2914	5861	4
0	2916	5866	5
0	2918	5872	6
0	2920	5875	3
0	2922	5877	2
0	2924	5883	6
0	2926	5887	4
0	2928	5890	3
0	2930	5893	3
0	2932	5896	3
0	2934	5902	6
0	2936	5904	2
0	2938	5909	5
0	2940	5912	3
0	2942	5918	6
0	2944	5921	3
0	2946	5930	9
0	2948	5935	5
0	2950	5939	4
0	2952	5941	2
0	2954	5945	4
0	2956	5946	1
0	2958	5950	4
0	2960	5952	2
0	2962	5955	3
0	2964	5957	2
0	2966	5960	3
0	2968	5962	2
0	2970	5967	5
0	2972	5970	3
0	2974	5975	5
0	2976	5977	2
0	2978	5981	4
0	2980	5984	3
0	2982	5989	5
0	2984	5993	4
0	2986	5996	3
0	2988	5999	3
0	2990	6003	4
0	2992	6007	4
0	2994	6013	6
0	2996	6021	8
0	2998	6026	5
0	3000	6033	7
0	3002	6038	5
0	3004	6042	4
0	3006	6044	2
0	3008	6050	6
0	3010	6054	4
0	3012	6059	5
0	3014	6060	1
0	3016	6066	6
0	3018	6069	3
0	3020	6073	4
0	3022	6078	5
0	3024	6081	3
0	3026	6084	3
0	3028	6087	3
0	3030	6089	2
0	3032	6091	2
0	3034	6098	7
0	3036	6101	3
0	3038	6106	5
0	3040	6110	4
0	3042	6114	4
0	3044	6119	5
0	3046	6122	3
0	3048	6125	3
0	3050	6131	6
0	3052	6134	3
0	3054	6142	8
0	3056	6147	5
0	3058	6151	4
0	3060	6156	5
0	3062	6159	3
0	3064	6164	5
0	3066	6164	0
0	3068	6166	2
0	3070	6167	1
0	3072	6169	2
0	3074	6174	5
0	3076	6178	4
0	3078	6182	4
0	3080	6188	6
0	3082	6193	5
0	3084	6200	7
0	3086	6206	6
0	3088	6209	3
0	3090	6217	8
0	3092	6220	3
0	3094	6223	3
0	3096	6225	2
0	3098	6230	5
0	3100	6234	4
0	3102	6237	3
0	3104	6242	5
0	3106	6246	4
0	3108	6251	5
0	3110	6255	4
0	3112	6259	4
0	3114	6263	4
0	3116	6266	3
0	3118	6272	6
0	3120	6276	4
0	3122	6277	1
0	3124	6283	6
0	3126	6285	2
0	3128	6287	2
0	3130	6294	7
0	3132	6296	2
0	3134	6299	3
0	3136	6305	6
0	3138	6308	3
0	3140	6311	3
0	3142	6313	2
0	3144	6315	2
0	3146	6319	4
0	3148	6322	3
0	3150	6329	7
0	3152	6335	6
0	3154	6337	2
0	3156	6341	4
0	3158	6345	4
0	3160	6346	1
0	3162	6353	7
0	3164	6359	6
0	3166	6365	6
0	3168	6366	1
0	3170	6371	5
0	3172	6373	2
0	3174	6375	2
0	3176	6378	3
0	3178	6380	2
0	3180	6384	4
0	3182	6387	3
0	3184	6394	7
0	3186	6397	3
0	3188	6399	2
0	3190	6400	1
0	3192	6402	2
0	3194	6404	2
0	3196	6406	2
0	3198	6411	5
0	3200	6418	7
0	3202	6424	6
0	3204	6428	4
0	3206	6432	4
0	3208	6439	7
0	3210	6444	5
0	3212	6448	4
0	3214	6451	3
0	3216	6454	3
0	3218	6456	2
0	3220	6458	2
0	3222	6462	4
0	3224	6464	2
0	3226	6469	5
0	3228	6471	2
0	3230	6473	2
0	3232	6480	7
0	3234	6481	1
0	3236	6486	5
0	3238	6492	6
0	3240	6498	6
0	3242	6502	4
0	3244	6509	7
0	3246	6513	4
0	3248	6518	5
0	3250	6520	2
0	3252	6521	1
0	3254	6526	5
0	3256	6529	3
0	3258	6529	0
0	3260	6533	4
0	3262	6537	4
0	3264	6542	5
0	3266	6546	4
0	3268	6549	3
0	3270	6553	4
0	3272	6556	3
0	3274	6559	3
0	3276	6563	4
0	3278	6567	4
0	3280	6571	4
0	3282	6573	2
0	3284	6579	6
0	3286	6588	9
0	3288	6592	4
0	3290	6595	3
0	3292	6600	5
0	3294	6605	5
0	3296	6610	5
0	3298	6612	2
0	3300	6615	3
0	3302	6618	3
0	3304	6621	3
0	3306	6621	0
0	3308	6627	6
0	3310	6634	7
0	3312	6637	3
0	3314	6639	2
0	3316	6644	5
0	3318	6647	3
0	3320	6650	3
0	3322	6656	6
0	3324	6659	3
0	3326	6665	6
0	3328	6668	3
0	3330	6670	2
0	3332	6677	7
0	3334	6685	8
0	3336	6689	4
0	3338	6692	3
0	3340	6698	6
0	3342	6703	5
0	3344	6708	5
0	3346	6710	2
0	3348	6715	5
0	3350	6719	4
0	3352	6722	3
0	3354	6724	2
0	3356	6727	3
0	3358	6733	6
0	3360	6736	3
0	3362	6738	2
0	3364	6744	6
0	3366	6745	1
0	3368	6747	2
0	3370	6755	8
0	3372	6755	0
0	3374	6760	5
0	3376	6764	4
0	3378	6768	4
0	3380	6775	7
0	3382	6776	1
0	3384	6780	4
0	3386	6786	6
0	3388	6788	2
0	3390	6791	3
0	3392	6794	3
0	3394	6802	8
0	3396	6806	4
0	3398	6814	8
0	3400	6821	7
0	3402	6825	4
0	3404	6827	2
0	3406	6832	5
0	3408	6835	3
0	3410	6839	4
0	3412	6843	4
0	3414	6847	4
0	3416	6849	2
0	3418	6851	2
0	3420	6853	2
0	3422	6856	3
0	3424	6860	4
0	3426	6868	8
0	3428	6874	6
0	3430	6878	4
0	3432	6879	1
0	3434	6885	6
0	3436	6886	1
0	3438	6888	2
0	3440	6890	2
0	3442	6900	10
0	3444	6904	4
0	3446	6905	1
0	3448	6908	3
0	3450	6911	3
0	3452	6917	6
0	3454	6923	6
0	3456	6930	7
0	3458	6931	1
0	3460	6931	0
0	3462	6938	7
0	3464	6939	1
0	3466	6941	2
0	3468	6951	10
0	3470	6955	4
0	3472	6961	6
0	3474	6965	4
0	3476	6972	7
0	3478	6975	3
0	3480	6981	6
0	3482	6986	5
0	3484	6988	2
0	3486	6990	2
0	3488	6990	0
0	3490	6992	2
0	3492	6995	3
0	3494	7005	10
0	3496	7006	1
0	3498	7007	1
0	3500	7008	1
0	3502	7009	1
0	3504	7013	4
0	3506	7016	3
0	3508	7023	7
0	3510	7026	3
0	3512	7030	4
0	3514	7032	2
0	3516	7034	2
0	3518	7039	5
0	3520	7040	1
0	3522	7044	4
0	3524	7044	0
0	3526	7048	4
0	3528	7051	3
0	3530	7053	2
0	3532	7055	2
0	3534	7057	2
0	3536	7058	1
0	3538	7060	2
0	3540	7062	2
0	3542	7066	4
0	3544	7069	3
0	3546	7075	6
0	3548	7076	1
0	3550	7079	3
0	3552	7086	7
0	3554	7089	3
0	3556	7094	5
0	3558	7096	2
0	3560	7099	3
0	3562	7100	1
0	3564	7104	4
0	3566	7109	5
0	3568	7117	8
0	3570	7121	4
0	3572	7124	3
0	3574	7126	2
0	3576	7128	2
0	3578	7135	7
0	3580	7139	4
0	3582	7142	3
0	3584	7149	7
0	3586	7154	5
0	3588	7158	4
0	3590	7162	4
0	3592	7167	5
0	3594	7173	6
0	3596	7176	3
0	3598	7183	7
0	3600	7186	3
0	3602	7190	4
0	3604	7197	7
0	3606	7203	6
0	3608	7208	5
0	3610	7212	4
0	3612	7214	2
0	3614	7219	5
0	3616	7220	1
0	3618	7227	7
0	3620	7236	9
0	3622	7238	2
0	3624	7241	3
0	3626	7244	3
0	3628	7246	2
0	3630	7249	3
0	3632	7254	5
0	3634	7256	2
0	3636	7259	3
0	3638	7265	6
0	3640	7271	6
0	3642	7275	4
0	3644	7281	6
0	3646	7287	6
0	3648	7291	4
0	3650	7295	4
0	3652	7300	5
0	3654	7304	4
0	3656	7307	3
0	3658	7313	6
0	3660	7319	6
0	3662	7322	3
0	3664	7328	6
0	3666	7332	4
0	3668	7339	7
0	3670	7343	4
0	3672	7346	3
0	3674	7350	4
0	3676	7353	3
0	3678	7359	6
0	3680	7361	2
0	3682	7366	5
0	3684	7372	6
0	3686	7374	2
0	3688	7377	3
0	3690	7378	1
0	3692	7388	10
0	3694	7392	4
0	3696	7398	6
0	3698	7400	2
0	3700	7403	3
0	3702	7404	1
0	3704	7407	3
0	3706	7409	2
0	3708	7416	7
0	3710	7420	4
0	3712	7424	4
0	3714	7428	4
0	3716	7432	4
0	3718	7433	1
0	3720	7438	5
0	3722	7443	5
0	3724	7446	3
0	3726	7449	3
0	3728	7453	4
0	3730	7459	6
0	3732	7463	4
0	3734	7470	7
0	3736	7474	4
0	3738	7478	4
0	3740	7481	3
0	3742	7486	5
0	3744	7488	2
0	3746	7489	1
0	3748	7491	2
0	3750	7495	4
0	3752	7499	4
0	3754	7503	4
0	3756	7505	2
0	3758	7508	3
0	3760	7511	3
0	3762	7515	4
0	3764	7518	3
0	3766	7524	6
0	3768	7526	2
0	3770	7531	5
0	3772	7536	5
0	3774	7538	2
0	3776	7539	1
0	3778	7547	8
0	3780	7551	4
0	3782	7557	6
0	3784	7558	1
0	3786	7561	3
0	3788	7567	6
0	3790	7573	6
0	3792	7574	1
0	3794	7576	2
0	3796	7578	2
0	3798	7582	4
0	3800	7587	5
0	3802	7592	5
0	3804	7596	4
0	3806	7602	6
0	3808	7606	4
0	3810	7611	5
0	3812	7614	3
0	3814	7617	3
0	3816	7620	3
0	3818	7621	1
0	3820	7625	4
0	3822	7628	3
0	3824	7630	2
0	3826	7633	3
0	3828	7636	3
0	3830	7637	1
0	3832	7638	1
0	3834	7639	1
0	3836	7644	5
0	3838	7650	6
0	3840	7655	5
0	3842	7661	6
0	3844	7664	3
0	3846	7668	4
0	3848	7675	7
0	3850	7678	3
0	3852	7681	3
0	3854	7684	3
0	3856	7687	3
0	3858	7693	6
0	3860	7696	3
0	3862	7700	4
0	3864	7702	2
0	3866	7706	4
0	3868	7710	4
0	3870	7717	7
0	3872	7720	3
0	3874	7725	5
0	3876	7728	3
0	3878	7729	1
0	3880	7731	2
0	3882	7737	6
0	3884	7743	6
0	3886	7747	4
0	3888	7750	3
0	3890	7758	8
0	3892	7763	5
0	3894	7770	7
0	3896	7773	3
0	3898	7778	5
0	3900	7783	5
0	3902	7786	3
0	3904	7791	5
0	3906	7797	6
0	3908	7799	2
0	3910	7805	6
0	3912	7810	5
0	3914	7816	6
0	3916	7820	4
0	3918	7825	5
0	3920	7828	3
0	3922	7834	6
0	3924	7838	4
0	3926	7841	3
0	3928	7851	10
0	3930	7855	4
0	3932	7857	2
0	3934	7859	2
0	3936	7863	4
0	3938	7868	5
0	3940	7871	3
0	3942	7877	6
0	3944	7882	5
0	3946	7887	5
0	3948	7891	4
0	3950	7892	1
0	3952	7895	3
0	3954	7900	5
0	3956	7902	2
0	3958	7906	4
0	3960	7909	3
0	3962	7913	4
0	3964	7918	5
0	3966	7921	3
0	3968	7927	6
0	3970	7930	3
0	3972	7934	4
0	3974	7937	3
0	3976	7938	1
0	3978	7942	4
0	3980	7950	8
0	3982	7956	6
0	3984	7965	9
0	3986	7973	8
0	3988	7976	3
0	3990	7977	1
0	3992	7979	2
0	3994	7982	3
0	3996	7985	3
0	3998	7986	1
0	4000	7992	6
0	4002	7996	4
0	4004	7999	3
0	4006	7999	0
0	4008	8006	7
0	4010	8007	1
0	4012	8010	3
0	4014	8015	5
0	4016	8023	8
0	4018	8028	5
0	4020	8029	1
0	4022	8031	2
0	4024	8035	4
0	4026	8039	4
0	4028	8043	4
0	4030	8048	5
0	4032	8051	3
0	4034	8054	3
0	4036	8057	3
0	4038	8063	6
0	4040	8064	1
0	4042	8069	5
0	4044	8074	5
0	4046	8078	4
0	4048	8085	7
0	4050	8091	6
0	4052	8095	4
0	4054	8102	7
0	4056	8108	6
0	4058	8113	5
0	4060	8117	4
0	4062	8127	10
0	4064	8131	4
0	4066	8137	6
0	4068	8139	2
0	4070	8147	8
0	4072	8151	4
0	4074	8154	3
0	4076	8157	3
0	4078	8158	1
0	4080	8160	2
0	4082	8168	8
0	4084	8177	9
0	4086	8180	3
0	4088	8181	1
0	4090	8182	1
0	4092	8186	4
0	4094	8190	4
0	4096	8194	4
0	4098	8198	4
0	4100	8207	9
0	4102	8208	1
0	4104	8215	7
0	4106	8218	3
0	4108	8222	4
0	4110	8224	2
0	4112	8227	3
0	4114	8228	1
0	4116	8235	7
0	4118	8240	5
0	4120	8243	3
0	4122	8247	4
0	4124	8250	3
0	4126	8251	1
0	4128	8253	2
0	4130	8256	3
0	4132	8263	7
0	4134	8266	3
0	4136	8269	3
0	4138	8273	4
0	4140	8276	3
0	4142	8279	3
0	4144	8286	7
0	4146	8288	2
0	4148	8291	3
0	4150	8296	5
0	4152	8304	8
0	4154	8308	4
0	4156	8313	5
0	4158	8317	4
0	4160	8319	2
0	4162	8324	5
0	4164	8325	1
0	4166	8329	4
0	4168	8334	5
0	4170	8338	4
0	4172	8342	4
0	4174	8346	4
0	4176	8353	7
0	4178	8357	4
0	4180	8363	6
0	4182	8370	7
0	4184	8374	4
0	4186	8377	3
0	4188	8383	6
0	4190	8384	1
0	4192	8388	4
0	4194	8390	2
0	4196	8393	3
0	4198	8395	2
0	4200	8400	5
0	4202	8405	5
0	4204	8411	6
0	4206	8418	7
0	4208	8424	6
0	4210	8428	4
0	4212	8433	5
0	4214	8441	8
0	4216	8446	5
0	4218	8449	3
0	4220	8454	5
0	4222	8460	6
0	4224	8464	4
0	4226	8470	6
0	4228	8473	3
0	4230	8476	3
0	4232	8480	4
0	4234	8484	4
0	4236	8485	1
0	4238	8490	5
0	4240	8494	4
0	4242	8505	11
0	4244	8508	3
0	4246	8512	4
0	4248	8521	9
0	4250	8525	4
0	4252	8534	9
0	4254	8537	3
0	4256	8539	2
0	4258	8539	0
0	4260	8543	4
0	4262	8547	4
0	4264	8551	4
0	4266	8553	2
0	4268	8557	4
0	4270	8562	5
0	4272	8566	4
0	4274	8572	6
0	4276	8574	2
0	4278	8577	3
0	4280	8579	2
0	4282	8583	4
0	4284	8593	10
0	4286	8598	5
0	4288	8603	5
0	4290	8607	4
0	4292	8607	0
0	4294	8610	3
0	4296	8615	5
0	4298	8620	5
0	4300	8624	4
0	4302	8629	5
0	4304	8631	2
0	4306	8635	4
0	4308	8639	4
0	4310	8642	3
0	4312	8649	7
0	4314	8653	4
0	4316	8658	5
0	4318	8662	4
0	4320	8664	2
0	4322	8672	8
0	4324	8680	8
0	4326	8685	5
0	4328	8692	7
0	4330	8692	0
0	4332	8697	5
0	4334	8707	10
0	4336	8712	5