version 2
run MMPP-0-20110407-00:45:09-4648
attr configname MMPP
attr datetime 20110407-00:45:09
attr experiment MMPP
attr inifile C:/Users/Mariusz/Desktop/Tirt/omnetpp.ini
attr iterationvars ""
attr iterationvars2 $repetition=0
attr measurement ""
attr network Network4
attr processid 4648
attr repetition 0
attr replication #0
attr resultdir results
attr runnumber 0
attr seedset 0

vector 0  Network4.receiver  arrivals  ETV
attr interpolationmode  none
vector 1  Network4.receiver  sizes  ETV
0	2	0	0
0	4	3	3
0	6	9	6
0	8	14	5
0	10	17	3
0	14	60	43
0	16	65	5
0	18	66	1
0	20	69	3
0	22	76	7
0	25	110	34
0	27	115	5
0	29	119	4
0	31	121	2
0	33	125	4
0	35	132	7
0	37	135	3
0	39	137	2
0	41	138	1
0	43	141	3
0	46	167	26
0	48	171	4
0	50	174	3
0	52	180	6
0	54	183	3
0	56	185	2
0	58	188	3
0	60	193	5
0	62	200	7
0	64	208	8
0	66	216	8
0	68	221	5
0	70	224	3
0	72	229	5
0	74	234	5
0	76	248	14
0	78	255	7
0	80	256	1
0	82	262	6
0	84	265	3
0	87	288	23
0	89	291	3
0	91	294	3
0	93	296	2
0	95	302	6
0	97	316	14
0	99	320	4
0	101	326	6
0	103	334	8
0	105	336	2
0	108	357	21
0	110	359	2
0	112	365	6
0	114	366	1
0	116	370	4
0	118	386	16
0	120	386	0
0	122	392	6
0	124	398	6
1	2	0	500
1	4	3	500
1	6	9	500
1	8	14	500
1	10	17	500
1	14	60	500
1	16	65	500
1	18	66	500
1	20	69	500
1	22	76	500
1	25	110	1000
1	27	115	1000
1	29	119	1000
1	31	121	1000
1	33	125	1000
1	35	132	500
1	37	135	500
1	39	137	500
1	41	138	500
1	43	141	500
1	46	167	500
1	48	171	500
1	50	174	500
1	52	180	500
1	54	183	500
1	56	185	500
1	58	188	500
1	60	193	500
1	62	200	500
1	64	208	500
1	66	216	500
1	68	221	500
1	70	224	500
1	72	229	500
1	74	234	500
1	76	248	1000
1	78	255	1000
1	80	256	1000
1	82	262	1000
1	84	265	1000
1	87	288	500
1	89	291	500
1	91	294	500
1	93	296	500
1	95	302	500
1	97	316	1000
1	99	320	1000
1	101	326	1000
1	103	334	1000
1	105	336	1000
1	108	357	500
1	110	359	500
1	112	365	500
1	114	366	500
1	116	370	500
1	118	386	1000
1	120	386	1000
1	122	392	1000
1	124	398	1000
