version 2
run On-Off-0-20110407-00:53:29-15444
attr configname On-Off
attr datetime 20110407-00:53:29
attr experiment On-Off
attr inifile C:/omnetpp-4.1-src-windows/omnetpp-4.1/samples/Tirt/omnetpp.ini
attr iterationvars ""
attr iterationvars2 $repetition=0
attr measurement ""
attr network Network3
attr processid 15444
attr repetition 0
attr replication #0
attr resultdir results
attr runnumber 0
attr seedset 0

vector 0  Network3.receiver  arrivals  ETV
attr interpolationmode  none
vector 1  Network3.receiver  sizes  ETV
0	2	0	0
0	4	3	3
0	6	8	5
0	8	15	7
0	10	25	10
0	12	26	1
0	14	48	22
0	16	51	3
0	18	56	5
0	20	59	3
0	22	62	3
0	24	76	14
0	26	85	9
0	28	95	10
0	30	97	2
0	32	97	0
0	34	102	5
0	36	120	18
0	38	129	9
0	40	137	8
0	42	144	7
0	44	147	3
0	46	147	0
0	48	156	9
0	50	160	4
0	52	163	3
0	54	181	18
0	56	184	3
0	58	189	5
0	60	190	1
0	62	193	3
0	64	193	0
0	66	197	4
0	68	212	15
0	70	212	0
0	72	212	0
0	74	222	10
0	76	231	9
0	78	234	3
0	80	250	16
0	82	259	9
0	84	263	4
0	86	271	8
0	88	274	3
0	90	293	19
0	92	303	10
0	94	311	8
0	96	313	2
0	98	313	0
0	100	328	15
0	102	330	2
0	104	333	3
0	106	333	0
0	108	339	6
0	110	357	18
0	112	362	5
0	114	371	9
0	116	374	3
0	118	374	0
0	120	383	9
0	122	400	17
0	124	409	9
0	126	415	6
0	128	424	9
0	130	432	8
0	132	435	3
0	134	445	10
0	136	451	6
0	138	468	17
0	140	476	8
0	142	482	6
1	2	0	500
1	4	3	500
1	6	8	500
1	8	15	500
1	10	25	500
1	12	26	500
1	14	48	500
1	16	51	500
1	18	56	500
1	20	59	500
1	22	62	500
1	24	76	500
1	26	85	500
1	28	95	500
1	30	97	500
1	32	97	500
1	34	102	500
1	36	120	500
1	38	129	500
1	40	137	500
1	42	144	500
1	44	147	500
1	46	147	500
1	48	156	500
1	50	160	500
1	52	163	500
1	54	181	500
1	56	184	500
1	58	189	500
1	60	190	500
1	62	193	500
1	64	193	500
1	66	197	500
1	68	212	500
1	70	212	500
1	72	212	500
1	74	222	500
1	76	231	500
1	78	234	500
1	80	250	500
1	82	259	500
1	84	263	500
1	86	271	500
1	88	274	500
1	90	293	500
1	92	303	500
1	94	311	500
1	96	313	500
1	98	313	500
1	100	328	500
1	102	330	500
1	104	333	500
1	106	333	500
1	108	339	500
1	110	357	500
1	112	362	500
1	114	371	500
1	116	374	500
1	118	374	500
1	120	383	500
1	122	400	500
1	124	409	500
1	126	415	500
1	128	424	500
1	130	432	500
1	132	435	500
1	134	445	500
1	136	451	500
1	138	468	500
1	140	476	500
1	142	482	500
