version 2
run Poisson-0-20110505-01:09:04-2456
attr configname Poisson
attr datetime 20110505-01:09:04
attr experiment Poisson
attr inifile omnetpp.ini
attr iterationvars ""
attr iterationvars2 $repetition=0
attr measurement ""
attr network Network1
attr processid 2456
attr repetition 0
attr replication #0
attr resultdir results
attr runnumber 0
attr seedset 0

vector 4  Network1.destination1  arrivals  ETV
attr interpolationmode  none
vector 5  Network1.destination1  sizes  ETV
vector 6  Network1.destination2  arrivals  ETV
attr interpolationmode  none
vector 7  Network1.destination2  sizes  ETV
vector 0  Network1.admissionRejected  arrivals  ETV
attr interpolationmode  none
vector 1  Network1.admissionRejected  sizes  ETV
vector 8  Network1.destination3  arrivals  ETV
attr interpolationmode  none
vector 9  Network1.destination3  sizes  ETV
vector 10  Network1.destination4  arrivals  ETV
attr interpolationmode  none
vector 11  Network1.destination4  sizes  ETV
0	85	73	73
0	163	143	70
0	207	184	41
0	286	255	71
0	446	397	142
0	525	468	71
0	641	571	103
0	677	604	33
0	718	642	38
0	754	675	33
0	831	744	69
0	953	853	109
0	1110	992	139
0	1517	1351	359
0	1636	1457	106
0	1790	1593	136
0	1827	1627	34
0	1910	1702	75
0	2268	2017	315
0	2389	2125	108
0	2548	2266	141
0	2663	2368	102
0	2699	2401	33
0	2943	2617	216
0	3185	2831	214
0	3220	2863	32
0	3257	2897	34
0	3295	2932	35
0	3373	3002	70
0	3452	3073	71
0	3488	3106	33
1	85	73	500
1	163	143	500
1	207	184	500
1	286	255	500
1	446	397	500
1	525	468	500
1	641	571	500
1	677	604	500
1	718	642	500
1	754	675	500
1	831	744	500
1	953	853	500
1	1110	992	500
1	1517	1351	500
1	1636	1457	500
1	1790	1593	500
1	1827	1627	500
1	1910	1702	500
1	2268	2017	500
1	2389	2125	500
1	2548	2266	500
1	2663	2368	500
1	2699	2401	500
1	2943	2617	500
1	3185	2831	500
1	3220	2863	500
1	3257	2897	500
1	3295	2932	500
1	3373	3002	500
1	3452	3073	500
1	3488	3106	500
4	5	0	0
4	325	289	289
4	567	505	216
4	913	816	311
4	1152	1029	213
4	1318	1175	146
4	1476	1313	138
4	1715	1526	213
4	1990	1772	246
4	2152	1914	142
4	2350	2089	175
4	2586	2299	210
4	2816	2503	204
4	3024	2688	185
4	3337	2969	281
5	5	0	500
5	325	289	500
5	567	505	500
5	913	816	500
5	1152	1029	500
5	1318	1175	500
5	1476	1313	500
5	1715	1526	500
5	1990	1772	500
5	2152	1914	500
5	2350	2089	500
5	2586	2299	500
5	2816	2503	500
5	3024	2688	500
5	3337	2969	500
6	48	39	39
6	365	324	285
6	604	537	213
6	991	886	349
6	1196	1068	182
6	1358	1210	142
6	1555	1384	174
6	1752	1558	174
6	2027	1804	246
6	2191	1948	144
6	2429	2160	212
6	2626	2334	174
6	2860	2542	208
6	3064	2723	181
6	3414	3038	315
7	48	39	500
7	365	324	500
7	604	537	500
7	991	886	500
7	1196	1068	500
7	1358	1210	500
7	1555	1384	500
7	1752	1558	500
7	2027	1804	500
7	2191	1948	500
7	2429	2160	500
7	2626	2334	500
7	2860	2542	500
7	3064	2723	500
7	3414	3038	500
8	128	111	111
8	407	361	250
8	793	709	348
8	1027	917	208
8	1238	1105	188
8	1398	1245	140
8	1597	1421	176
8	1866	1661	240
8	2070	1842	181
8	2235	1987	145
8	2467	2193	206
8	2737	2434	241
8	2906	2583	149
8	3105	2759	176
8	3528	3141	382
9	128	111	500
9	407	361	500
9	793	709	500
9	1027	917	500
9	1238	1105	500
9	1398	1245	500
9	1597	1421	500
9	1866	1661	500
9	2070	1842	500
9	2235	1987	500
9	2467	2193	500
9	2737	2434	500
9	2906	2583	500
9	3105	2759	500
9	3528	3141	500
10	247	219	219
10	486	432	213
10	874	782	350
10	1069	954	172
10	1278	1140	186
10	1439	1281	141
10	1674	1490	209
10	1948	1735	245
10	2107	1874	139
10	2308	2052	178
10	2508	2229	177
10	2774	2466	237
10	2986	2655	189
10	3147	2796	141
10	3564	3172	376
11	247	219	500
11	486	432	500
11	874	782	500
11	1069	954	500
11	1278	1140	500
11	1439	1281	500
11	1674	1490	500
11	1948	1735	500
11	2107	1874	500
11	2308	2052	500
11	2508	2229	500
11	2774	2466	500
11	2986	2655	500
11	3147	2796	500
11	3564	3172	500
