version 2
run Poisson-0-20110407-00:34:04-4664
attr configname Poisson
attr datetime 20110407-00:34:04
attr experiment Poisson
attr inifile C:/Users/Mariusz/Desktop/Tirt/omnetpp.ini
attr iterationvars ""
attr iterationvars2 $repetition=0
attr measurement ""
attr network Network1
attr processid 4664
attr repetition 0
attr replication #0
attr resultdir results
attr runnumber 0
attr seedset 0

vector 0  Network1.receiver  arrivals  ETV
attr interpolationmode  none
vector 1  Network1.receiver  sizes  ETV
0	2	0	0
0	4	111	111
0	6	214	103
0	8	322	108
0	10	427	105
0	12	529	102
0	14	640	111
0	16	746	106
0	18	852	106
0	20	957	105
0	22	1059	102
0	24	1163	104
0	26	1271	108
0	28	1374	103
0	30	1480	106
0	32	1585	105
0	34	1688	103
0	36	1794	106
0	38	1901	107
0	40	2004	103
0	42	2109	105
0	44	2213	104
0	46	2317	104
0	48	2424	107
0	50	2526	102
0	52	2628	102
0	54	2732	104
0	56	2838	106
0	58	2944	106
0	60	3049	105
0	62	3152	103
0	64	3259	107
0	66	3363	104
0	68	3466	103
0	70	3572	106
1	2	0	500
1	4	111	500
1	6	214	500
1	8	322	500
1	10	427	500
1	12	529	500
1	14	640	500
1	16	746	500
1	18	852	500
1	20	957	500
1	22	1059	500
1	24	1163	500
1	26	1271	500
1	28	1374	500
1	30	1480	500
1	32	1585	500
1	34	1688	500
1	36	1794	500
1	38	1901	500
1	40	2004	500
1	42	2109	500
1	44	2213	500
1	46	2317	500
1	48	2424	500
1	50	2526	500
1	52	2628	500
1	54	2732	500
1	56	2838	500
1	58	2944	500
1	60	3049	500
1	62	3152	500
1	64	3259	500
1	66	3363	500
1	68	3466	500
1	70	3572	500
