version 2
run Poisson-0-20110407-09:16:40-14620
attr configname Poisson
attr datetime 20110407-09:16:40
attr experiment Poisson
attr inifile C:/omnetpp-4.1-src-windows/omnetpp-4.1/samples/Tirt/omnetpp.ini
attr iterationvars ""
attr iterationvars2 $repetition=0
attr measurement ""
attr network Network1
attr processid 14620
attr repetition 0
attr replication #0
attr resultdir results
attr runnumber 0
attr seedset 0

vector 0  Network1.receiver  arrivals  ETV
attr interpolationmode  none
vector 1  Network1.receiver  sizes  ETV
0	2	0	0
0	4	41	41
0	6	74	33
0	8	112	38
0	10	147	35
0	12	179	32
0	14	220	41
0	16	256	36
0	18	292	36
0	20	327	35
0	22	359	32
0	24	393	34
0	26	431	38
0	28	464	33
0	30	500	36
0	32	535	35
0	34	568	33
0	36	604	36
0	38	641	37
0	40	674	33
0	42	709	35
0	44	743	34
0	46	777	34
0	48	814	37
0	50	846	32
0	52	878	32
0	54	912	34
0	56	948	36
0	58	984	36
0	60	1019	35
0	62	1052	33
0	64	1089	37
0	66	1123	34
0	68	1156	33
0	70	1192	36
0	72	1230	38
0	74	1270	40
0	76	1307	37
0	78	1348	41
0	80	1384	36
0	82	1419	35
0	84	1455	36
0	86	1488	33
0	88	1521	33
0	90	1558	37
0	92	1593	35
0	94	1628	35
0	96	1667	39
0	98	1701	34
0	100	1738	37
0	102	1769	31
0	104	1805	36
0	106	1838	33
0	108	1870	32
0	110	1907	37
0	112	1940	33
0	114	1971	31
0	116	2006	35
0	118	2042	36
0	120	2075	33
0	122	2113	38
0	124	2151	38
0	126	2184	33
0	128	2222	38
0	130	2253	31
0	132	2286	33
0	134	2323	37
0	136	2358	35
0	138	2396	38
0	140	2430	34
0	142	2467	37
0	144	2501	34
0	146	2537	36
0	148	2575	38
0	150	2611	36
0	152	2644	33
0	154	2679	35
0	156	2712	33
0	158	2748	36
0	160	2782	34
0	162	2817	35
0	164	2850	33
0	166	2886	36
0	168	2921	35
0	170	2954	33
0	172	2988	34
0	174	3019	31
0	176	3051	32
0	178	3089	38
0	180	3127	38
0	182	3168	41
0	184	3206	38
0	186	3245	39
0	188	3275	30
0	190	3309	34
0	192	3344	35
0	194	3377	33
0	196	3417	40
0	198	3450	33
0	200	3485	35
0	202	3518	33
0	204	3549	31
0	206	3583	34
0	208	3618	35
0	210	3656	38
0	212	3689	33
0	214	3722	33
0	216	3758	36
0	218	3793	35
0	220	3826	33
0	222	3864	38
0	224	3897	33
0	226	3931	34
0	228	3967	36
0	230	4001	34
0	232	4037	36
0	234	4070	33
0	236	4103	33
0	238	4138	35
0	240	4172	34
0	242	4206	34
0	244	4244	38
0	246	4280	36
0	248	4313	33
0	250	4348	35
0	252	4386	38
0	254	4423	37
0	256	4458	35
0	258	4493	35
0	260	4530	37
0	262	4564	34
0	264	4596	32
0	266	4633	37
0	268	4667	34
0	270	4700	33
0	272	4734	34
0	274	4766	32
0	276	4800	34
0	278	4832	32
0	280	4866	34
0	282	4902	36
0	284	4935	33
0	286	4973	38
0	288	5007	34
0	290	5042	35
0	292	5080	38
0	294	5120	40
0	296	5153	33
0	298	5193	40
0	300	5227	34
0	302	5262	35
0	304	5297	35
0	306	5332	35
0	308	5368	36
0	310	5404	36
0	312	5440	36
0	314	5476	36
0	316	5512	36
0	318	5546	34
0	320	5580	34
0	322	5616	36
0	324	5650	34
0	326	5684	34
0	328	5720	36
0	330	5753	33
0	332	5790	37
0	334	5823	33
0	336	5858	35
0	338	5893	35
0	340	5930	37
0	342	5968	38
0	344	6002	34
0	346	6036	34
0	348	6067	31
0	350	6099	32
0	352	6134	35
0	354	6165	31
0	356	6199	34
0	358	6233	34
0	360	6267	34
0	362	6301	34
0	364	6340	39
0	366	6378	38
0	368	6415	37
0	370	6449	34
0	372	6488	39
1	2	0	500
1	4	41	500
1	6	74	500
1	8	112	500
1	10	147	500
1	12	179	500
1	14	220	500
1	16	256	500
1	18	292	500
1	20	327	500
1	22	359	500
1	24	393	500
1	26	431	500
1	28	464	500
1	30	500	500
1	32	535	500
1	34	568	500
1	36	604	500
1	38	641	500
1	40	674	500
1	42	709	500
1	44	743	500
1	46	777	500
1	48	814	500
1	50	846	500
1	52	878	500
1	54	912	500
1	56	948	500
1	58	984	500
1	60	1019	500
1	62	1052	500
1	64	1089	500
1	66	1123	500
1	68	1156	500
1	70	1192	500
1	72	1230	500
1	74	1270	500
1	76	1307	500
1	78	1348	500
1	80	1384	500
1	82	1419	500
1	84	1455	500
1	86	1488	500
1	88	1521	500
1	90	1558	500
1	92	1593	500
1	94	1628	500
1	96	1667	500
1	98	1701	500
1	100	1738	500
1	102	1769	500
1	104	1805	500
1	106	1838	500
1	108	1870	500
1	110	1907	500
1	112	1940	500
1	114	1971	500
1	116	2006	500
1	118	2042	500
1	120	2075	500
1	122	2113	500
1	124	2151	500
1	126	2184	500
1	128	2222	500
1	130	2253	500
1	132	2286	500
1	134	2323	500
1	136	2358	500
1	138	2396	500
1	140	2430	500
1	142	2467	500
1	144	2501	500
1	146	2537	500
1	148	2575	500
1	150	2611	500
1	152	2644	500
1	154	2679	500
1	156	2712	500
1	158	2748	500
1	160	2782	500
1	162	2817	500
1	164	2850	500
1	166	2886	500
1	168	2921	500
1	170	2954	500
1	172	2988	500
1	174	3019	500
1	176	3051	500
1	178	3089	500
1	180	3127	500
1	182	3168	500
1	184	3206	500
1	186	3245	500
1	188	3275	500
1	190	3309	500
1	192	3344	500
1	194	3377	500
1	196	3417	500
1	198	3450	500
1	200	3485	500
1	202	3518	500
1	204	3549	500
1	206	3583	500
1	208	3618	500
1	210	3656	500
1	212	3689	500
1	214	3722	500
1	216	3758	500
1	218	3793	500
1	220	3826	500
1	222	3864	500
1	224	3897	500
1	226	3931	500
1	228	3967	500
1	230	4001	500
1	232	4037	500
1	234	4070	500
1	236	4103	500
1	238	4138	500
1	240	4172	500
1	242	4206	500
1	244	4244	500
1	246	4280	500
1	248	4313	500
1	250	4348	500
1	252	4386	500
1	254	4423	500
1	256	4458	500
1	258	4493	500
1	260	4530	500
1	262	4564	500
1	264	4596	500
1	266	4633	500
1	268	4667	500
1	270	4700	500
1	272	4734	500
1	274	4766	500
1	276	4800	500
1	278	4832	500
1	280	4866	500
1	282	4902	500
1	284	4935	500
1	286	4973	500
1	288	5007	500
1	290	5042	500
1	292	5080	500
1	294	5120	500
1	296	5153	500
1	298	5193	500
1	300	5227	500
1	302	5262	500
1	304	5297	500
1	306	5332	500
1	308	5368	500
1	310	5404	500
1	312	5440	500
1	314	5476	500
1	316	5512	500
1	318	5546	500
1	320	5580	500
1	322	5616	500
1	324	5650	500
1	326	5684	500
1	328	5720	500
1	330	5753	500
1	332	5790	500
1	334	5823	500
1	336	5858	500
1	338	5893	500
1	340	5930	500
1	342	5968	500
1	344	6002	500
1	346	6036	500
1	348	6067	500
1	350	6099	500
1	352	6134	500
1	354	6165	500
1	356	6199	500
1	358	6233	500
1	360	6267	500
1	362	6301	500
1	364	6340	500
1	366	6378	500
1	368	6415	500
1	370	6449	500
1	372	6488	500
